 Entering Gaussian System, Link 0=g16
 Initial command:
 /usr/local/g16/l1.exe "/home/raul/scrgauss16/Gau-154504.inp" -scrdir="/home/raul/scrgauss16/"
 Entering Link 1 = /usr/local/g16/l1.exe PID=    154506.
  
 Copyright (c) 1988,1990,1992,1993,1995,1998,2003,2009,2016,
            Gaussian, Inc.  All Rights Reserved.
  
 This is part of the Gaussian(R) 16 program.  It is based on
 the Gaussian(R) 09 system (copyright 2009, Gaussian, Inc.),
 the Gaussian(R) 03 system (copyright 2003, Gaussian, Inc.),
 the Gaussian(R) 98 system (copyright 1998, Gaussian, Inc.),
 the Gaussian(R) 94 system (copyright 1995, Gaussian, Inc.),
 the Gaussian 92(TM) system (copyright 1992, Gaussian, Inc.),
 the Gaussian 90(TM) system (copyright 1990, Gaussian, Inc.),
 the Gaussian 88(TM) system (copyright 1988, Gaussian, Inc.),
 the Gaussian 86(TM) system (copyright 1986, Carnegie Mellon
 University), and the Gaussian 82(TM) system (copyright 1983,
 Carnegie Mellon University). Gaussian is a federally registered
 trademark of Gaussian, Inc.
  
 This software contains proprietary and confidential information,
 including trade secrets, belonging to Gaussian, Inc.
  
 This software is provided under written license and may be
 used, copied, transmitted, or stored only in accord with that
 written license.
  
 The following legend is applicable only to US Government
 contracts under FAR:
  
                    RESTRICTED RIGHTS LEGEND
  
 Use, reproduction and disclosure by the US Government is
 subject to restrictions as set forth in subparagraphs (a)
 and (c) of the Commercial Computer Software - Restricted
 Rights clause in FAR 52.227-19.
  
 Gaussian, Inc.
 340 Quinnipiac St., Bldg. 40, Wallingford CT 06492
  
  
 ---------------------------------------------------------------
 Warning -- This program may not be used in any manner that
 competes with the business of Gaussian, Inc. or will provide
 assistance to any competitor of Gaussian, Inc.  The licensee
 of this program is prohibited from giving any competitor of
 Gaussian, Inc. access to this program.  By using this program,
 the user acknowledges that Gaussian, Inc. is engaged in the
 business of creating and licensing software in the field of
 computational chemistry and represents and warrants to the
 licensee that it is not a competitor of Gaussian, Inc. and that
 it will not use this program in any manner prohibited above.
 ---------------------------------------------------------------
  

 Cite this work as:
 Gaussian 16, Revision A.03,
 M. J. Frisch, G. W. Trucks, H. B. Schlegel, G. E. Scuseria, 
 M. A. Robb, J. R. Cheeseman, G. Scalmani, V. Barone, 
 G. A. Petersson, H. Nakatsuji, X. Li, M. Caricato, A. V. Marenich, 
 J. Bloino, B. G. Janesko, R. Gomperts, B. Mennucci, H. P. Hratchian, 
 J. V. Ortiz, A. F. Izmaylov, J. L. Sonnenberg, D. Williams-Young, 
 F. Ding, F. Lipparini, F. Egidi, J. Goings, B. Peng, A. Petrone, 
 T. Henderson, D. Ranasinghe, V. G. Zakrzewski, J. Gao, N. Rega, 
 G. Zheng, W. Liang, M. Hada, M. Ehara, K. Toyota, R. Fukuda, 
 J. Hasegawa, M. Ishida, T. Nakajima, Y. Honda, O. Kitao, H. Nakai, 
 T. Vreven, K. Throssell, J. A. Montgomery, Jr., J. E. Peralta, 
 F. Ogliaro, M. J. Bearpark, J. J. Heyd, E. N. Brothers, K. N. Kudin, 
 V. N. Staroverov, T. A. Keith, R. Kobayashi, J. Normand, 
 K. Raghavachari, A. P. Rendell, J. C. Burant, S. S. Iyengar, 
 J. Tomasi, M. Cossi, J. M. Millam, M. Klene, C. Adamo, R. Cammi, 
 J. W. Ochterski, R. L. Martin, K. Morokuma, O. Farkas, 
 J. B. Foresman, and D. J. Fox, Gaussian, Inc., Wallingford CT, 2016.
 
 ******************************************
 Gaussian 16:  ES64L-G16RevA.03 25-Dec-2016
                29-Apr-2022 
 ******************************************
 %chk=bisaliloRW.chk
 %nprocshared=16
 Will use up to   16 processors via shared memory.
 %mem=16GB
 ----------------------------------------------------------------------
 # opt freq 6-31+g(d,p) scrf=(smd,solvent=ethanol) m052x scf=(xqc,direc
 t)
 ----------------------------------------------------------------------
 1/18=20,19=15,26=3,38=1/1,3;
 2/9=110,12=2,17=6,18=5,40=1/2;
 3/5=1,6=6,7=111,11=2,25=1,30=1,70=32201,71=1,72=4,74=-38/1,2,3;
 4//1;
 5/5=2,8=3,13=1,38=5,53=4/2,8;
 6/7=2,8=2,9=2,10=2,28=1/1;
 7//1,2,3,16;
 1/18=20,19=15,26=3/3(2);
 2/9=110/2;
 99//99;
 2/9=110/2;
 3/5=1,6=6,7=111,11=2,25=1,30=1,70=32205,71=1,72=4,74=-38/1,2,3;
 4/5=5,16=3,69=1/1;
 5/5=2,8=3,13=1,38=5,53=4/2,8;
 7//1,2,3,16;
 1/18=20,19=15,26=3/3(-5);
 2/9=110/2;
 6/7=2,8=2,9=2,10=2,19=2,28=1/1;
 99/9=1/99;
 -------------------
 Title Card Required
 -------------------
 Symbolic Z-matrix:
 Charge =  0 Multiplicity = 2
 C                    -0.00003  -0.222     0.00052 
 C                    -1.23621  -0.91622   0.00011 
 C                     1.23616  -0.9162   -0.00004 
 H                    -0.00006   0.86052   0.0014 
 H                    -1.17401  -2.00199   0.0001 
 C                    -2.48837  -0.36496  -0.00021 
 H                     1.17397  -2.00198  -0.00033 
 C                     2.48834  -0.36498  -0.00029 
 H                    -3.33201  -1.04686   0.00018 
 C                    -2.82397   1.09234  -0.00027 
 H                     3.33196  -1.04691  -0.00051 
 C                     2.82405   1.09229  -0.00004 
 H                    -3.41982   1.34507   0.88207 
 H                    -1.94279   1.73191  -0.01008 
 H                    -3.43668   1.34088  -0.87204 
 H                     3.43171   1.34222  -0.87498 
 H                     1.9429    1.73197  -0.00377 
 H                     3.42503   1.34353   0.8792 
 

 GradGradGradGradGradGradGradGradGradGradGradGradGradGradGradGradGradGrad
 Berny optimization.
 Initialization pass.
                           ----------------------------
                           !    Initial Parameters    !
                           ! (Angstroms and Degrees)  !
 --------------------------                            --------------------------
 ! Name  Definition              Value          Derivative Info.                !
 --------------------------------------------------------------------------------
 ! R1    R(1,2)                  1.4178         estimate D2E/DX2                !
 ! R2    R(1,3)                  1.4178         estimate D2E/DX2                !
 ! R3    R(1,4)                  1.0825         estimate D2E/DX2                !
 ! R4    R(2,5)                  1.0876         estimate D2E/DX2                !
 ! R5    R(2,6)                  1.3681         estimate D2E/DX2                !
 ! R6    R(3,7)                  1.0876         estimate D2E/DX2                !
 ! R7    R(3,8)                  1.3681         estimate D2E/DX2                !
 ! R8    R(6,9)                  1.0848         estimate D2E/DX2                !
 ! R9    R(6,10)                 1.4954         estimate D2E/DX2                !
 ! R10   R(8,11)                 1.0848         estimate D2E/DX2                !
 ! R11   R(8,12)                 1.4954         estimate D2E/DX2                !
 ! R12   R(10,13)                1.0943         estimate D2E/DX2                !
 ! R13   R(10,14)                1.0889         estimate D2E/DX2                !
 ! R14   R(10,15)                1.0942         estimate D2E/DX2                !
 ! R15   R(12,16)                1.0942         estimate D2E/DX2                !
 ! R16   R(12,17)                1.0889         estimate D2E/DX2                !
 ! R17   R(12,18)                1.0942         estimate D2E/DX2                !
 ! A1    A(2,1,3)              121.3656         estimate D2E/DX2                !
 ! A2    A(2,1,4)              119.3157         estimate D2E/DX2                !
 ! A3    A(3,1,4)              119.3186         estimate D2E/DX2                !
 ! A4    A(1,2,5)              116.0388         estimate D2E/DX2                !
 ! A5    A(1,2,6)              126.9214         estimate D2E/DX2                !
 ! A6    A(5,2,6)              117.0398         estimate D2E/DX2                !
 ! A7    A(1,3,7)              116.0386         estimate D2E/DX2                !
 ! A8    A(1,3,8)              126.9236         estimate D2E/DX2                !
 ! A9    A(7,3,8)              117.0379         estimate D2E/DX2                !
 ! A10   A(2,6,9)              117.2908         estimate D2E/DX2                !
 ! A11   A(2,6,10)             126.7295         estimate D2E/DX2                !
 ! A12   A(9,6,10)             115.9797         estimate D2E/DX2                !
 ! A13   A(3,8,11)             117.29           estimate D2E/DX2                !
 ! A14   A(3,8,12)             126.7324         estimate D2E/DX2                !
 ! A15   A(11,8,12)            115.9776         estimate D2E/DX2                !
 ! A16   A(6,10,13)            110.3181         estimate D2E/DX2                !
 ! A17   A(6,10,14)            113.0032         estimate D2E/DX2                !
 ! A18   A(6,10,15)            110.3077         estimate D2E/DX2                !
 ! A19   A(13,10,14)           108.1957         estimate D2E/DX2                !
 ! A20   A(13,10,15)           106.5625         estimate D2E/DX2                !
 ! A21   A(14,10,15)           108.2143         estimate D2E/DX2                !
 ! A22   A(8,12,16)            110.3111         estimate D2E/DX2                !
 ! A23   A(8,12,17)            113.0053         estimate D2E/DX2                !
 ! A24   A(8,12,18)            110.3145         estimate D2E/DX2                !
 ! A25   A(16,12,17)           108.2091         estimate D2E/DX2                !
 ! A26   A(16,12,18)           106.5622         estimate D2E/DX2                !
 ! A27   A(17,12,18)           108.1991         estimate D2E/DX2                !
 ! D1    D(3,1,2,5)              0.0444         estimate D2E/DX2                !
 ! D2    D(3,1,2,6)           -179.9591         estimate D2E/DX2                !
 ! D3    D(4,1,2,5)           -179.9489         estimate D2E/DX2                !
 ! D4    D(4,1,2,6)              0.0476         estimate D2E/DX2                !
 ! D5    D(2,1,3,7)             -0.028          estimate D2E/DX2                !
 ! D6    D(2,1,3,8)            179.9704         estimate D2E/DX2                !
 ! D7    D(4,1,3,7)            179.9653         estimate D2E/DX2                !
 ! D8    D(4,1,3,8)             -0.0363         estimate D2E/DX2                !
 ! D9    D(1,2,6,9)           -179.9593         estimate D2E/DX2                !
 ! D10   D(1,2,6,10)             0.0042         estimate D2E/DX2                !
 ! D11   D(5,2,6,9)              0.0371         estimate D2E/DX2                !
 ! D12   D(5,2,6,10)          -179.9994         estimate D2E/DX2                !
 ! D13   D(1,3,8,11)           179.9865         estimate D2E/DX2                !
 ! D14   D(1,3,8,12)            -0.0005         estimate D2E/DX2                !
 ! D15   D(7,3,8,11)            -0.015          estimate D2E/DX2                !
 ! D16   D(7,3,8,12)           179.998          estimate D2E/DX2                !
 ! D17   D(2,6,10,13)         -120.6867         estimate D2E/DX2                !
 ! D18   D(2,6,10,14)            0.5745         estimate D2E/DX2                !
 ! D19   D(2,6,10,15)          121.8523         estimate D2E/DX2                !
 ! D20   D(9,6,10,13)           59.2772         estimate D2E/DX2                !
 ! D21   D(9,6,10,14)         -179.4616         estimate D2E/DX2                !
 ! D22   D(9,6,10,15)          -58.1838         estimate D2E/DX2                !
 ! D23   D(3,8,12,16)         -121.5129         estimate D2E/DX2                !
 ! D24   D(3,8,12,17)           -0.2379         estimate D2E/DX2                !
 ! D25   D(3,8,12,18)          121.0266         estimate D2E/DX2                !
 ! D26   D(11,8,12,16)          58.5            estimate D2E/DX2                !
 ! D27   D(11,8,12,17)         179.7749         estimate D2E/DX2                !
 ! D28   D(11,8,12,18)         -58.9606         estimate D2E/DX2                !
 --------------------------------------------------------------------------------
 Trust Radius=3.00D-01 FncErr=1.00D-07 GrdErr=1.00D-06 EigMax=2.50D+02 EigMin=1.00D-04
 Number of steps in this run=     82 maximum allowed number of steps=    108.
 GradGradGradGradGradGradGradGradGradGradGradGradGradGradGradGradGradGrad

                          Input orientation:                          
 ---------------------------------------------------------------------
 Center     Atomic      Atomic             Coordinates (Angstroms)
 Number     Number       Type             X           Y           Z
 ---------------------------------------------------------------------
      1          6           0       -0.000029   -0.222004    0.000524
      2          6           0       -1.236212   -0.916215    0.000110
      3          6           0        1.236162   -0.916199   -0.000041
      4          1           0       -0.000063    0.860522    0.001398
      5          1           0       -1.174011   -2.001995    0.000098
      6          6           0       -2.488374   -0.364961   -0.000205
      7          1           0        1.173970   -2.001979   -0.000325
      8          6           0        2.488341   -0.364976   -0.000293
      9          1           0       -3.332013   -1.046863    0.000180
     10          6           0       -2.823972    1.092336   -0.000268
     11          1           0        3.331955   -1.046913   -0.000505
     12          6           0        2.824049    1.092293   -0.000036
     13          1           0       -3.419817    1.345068    0.882068
     14          1           0       -1.942788    1.731910   -0.010080
     15          1           0       -3.436679    1.340877   -0.872038
     16          1           0        3.431709    1.342220   -0.874979
     17          1           0        1.942900    1.731974   -0.003766
     18          1           0        3.425031    1.343530    0.879200
 ---------------------------------------------------------------------
                    Distance matrix (angstroms):
                    1          2          3          4          5
     1  C    0.000000
     2  C    1.417772   0.000000
     3  C    1.417771   2.472374   0.000000
     4  H    1.082526   2.164454   2.164484   0.000000
     5  H    2.132276   1.087560   2.643461   3.093891   0.000000
     6  C    2.492448   1.368134   3.765107   2.773716   2.099388
     7  H    2.132272   2.643456   1.087560   3.093908   2.347981
     8  C    2.492474   3.765124   1.368137   2.773807   4.011565
     9  H    3.432566   2.099869   4.570043   3.839272   2.359926
    10  C    3.114827   2.560324   4.529779   2.833408   3.506744
    11  H    3.432578   4.570036   2.099865   3.839356   4.606073
    12  C    3.114931   4.529881   2.560356   2.833607   5.055601
    13  H    3.863649   3.264871   5.250675   3.564419   4.126057
    14  H    2.755396   2.740788   4.137427   2.129232   3.812239
    15  H    3.874858   3.270652   5.262149   3.578262   4.129780
    16  H    3.871709   5.258878   3.269006   3.574511   5.758662
    17  H    2.755544   4.137593   2.740860   2.129451   4.863915
    18  H    3.867041   5.254182   3.266587   3.568627   5.754698
                    6          7          8          9         10
     6  C    0.000000
     7  H    4.011557   0.000000
     8  C    4.976715   2.099369   0.000000
     9  H    1.084766   4.606097   5.860161   0.000000
    10  C    1.495440   5.055524   5.508578   2.198699   0.000000
    11  H    5.860144   2.359884   1.084768   6.663968   6.517041
    12  C    5.508668   3.506748   1.495437   6.517138   5.648021
    13  H    2.137800   5.751888   6.213626   2.550837   1.094268
    14  H    2.166709   4.863764   4.902237   3.106707   1.088869
    15  H    2.137582   5.761307   6.227017   2.544213   1.094151
    16  H    6.223108   4.128689   2.137648   7.226448   6.321480
    17  H    4.902381   3.812305   2.166730   5.962102   4.809596
    18  H    6.217769   4.127138   2.137730   7.221101   6.315584
                   11         12         13         14         15
    11  H    0.000000
    12  C    2.198675   0.000000
    13  H    7.217128   6.310932   0.000000
    14  H    5.961951   4.809568   1.768386   0.000000
    15  H    7.230181   6.326049   1.754192   1.768499   0.000000
    16  H    2.546097   1.094184   7.073233   5.457575   6.868389
    17  H    3.106718   1.088866   5.449140   3.885693   5.463215
    18  H    2.548875   1.094237   6.844849   5.454827   7.081660
                   16         17         18
    16  H    0.000000
    17  H    1.768466   0.000000
    18  H    1.754192   1.768398   0.000000
 Stoichiometry    C7H11(2)
 Framework group  C1[X(C7H11)]
 Deg. of freedom    48
 Full point group                 C1      NOp   1
 Largest Abelian subgroup         C1      NOp   1
 Largest concise Abelian subgroup C1      NOp   1
                         Standard orientation:                         
 ---------------------------------------------------------------------
 Center     Atomic      Atomic             Coordinates (Angstroms)
 Number     Number       Type             X           Y           Z
 ---------------------------------------------------------------------
      1          6           0       -0.000029   -0.222004    0.000524
      2          6           0       -1.236212   -0.916215    0.000110
      3          6           0        1.236162   -0.916199   -0.000041
      4          1           0       -0.000063    0.860522    0.001398
      5          1           0       -1.174011   -2.001995    0.000098
      6          6           0       -2.488374   -0.364961   -0.000205
      7          1           0        1.173970   -2.001979   -0.000325
      8          6           0        2.488341   -0.364976   -0.000293
      9          1           0       -3.332013   -1.046863    0.000180
     10          6           0       -2.823972    1.092336   -0.000268
     11          1           0        3.331955   -1.046913   -0.000505
     12          6           0        2.824049    1.092293   -0.000036
     13          1           0       -3.419817    1.345068    0.882068
     14          1           0       -1.942788    1.731910   -0.010080
     15          1           0       -3.436679    1.340877   -0.872038
     16          1           0        3.431709    1.342220   -0.874979
     17          1           0        1.942900    1.731974   -0.003766
     18          1           0        3.425031    1.343530    0.879200
 ---------------------------------------------------------------------
 Rotational constants (GHZ):           6.3260924           1.0988178           0.9470851
 Standard basis: 6-31+G(d,p) (6D, 7F)
 There are   188 symmetry adapted cartesian basis functions of A   symmetry.
 There are   188 symmetry adapted basis functions of A   symmetry.
   188 basis functions,   301 primitive gaussians,   188 cartesian basis functions
    27 alpha electrons       26 beta electrons
       nuclear repulsion energy       266.3631301678 Hartrees.
 NAtoms=   18 NActive=   18 NUniq=   18 SFac= 1.00D+00 NAtFMM=   60 NAOKFM=F Big=F
 Integral buffers will be    131072 words long.
 Raffenetti 2 integral format.
 Two-electron integral symmetry is turned on.
 ------------------------------------------------------------------------------
 Polarizable Continuum Model (PCM)
 =================================
 Model                : PCM.
 Atomic radii         : SMD-Coulomb.
 Polarization charges : Total charges.
 Charge compensation  : None.
 Solution method      : On-the-fly selection.
 Cavity type          : VdW (van der Waals Surface) (Alpha=1.000).
 Cavity algorithm     : GePol (No added spheres)
                        Default sphere list used, NSphG=   18.
                        Lebedev-Laikov grids with approx.  5.0 points / Ang**2.
                        Smoothing algorithm: York/Karplus (Gamma=1.0000).
                        Polarization charges: spherical gaussians, with
                                              point-specific exponents (IZeta= 3).
                        Self-potential: point-specific (ISelfS= 7).
                        Self-field    : sphere-specific E.n sum rule (ISelfD= 2).
 1st derivatives      : Analytical E(r).r(x)/FMM algorithm (CHGder, D1EAlg=3).
                        Cavity 1st derivative terms included.
 Solvent              : Ethanol, Eps=  24.852000 Eps(inf)=   1.852593
 ------------------------------------------------------------------------------
 Spheres list:
 ISph  on   Nord     Re0    Alpha      Xe            Ye            Ze
    1   C      1    1.8500  1.000     -0.000029     -0.222004      0.000524
    2   C      2    1.8500  1.000     -1.236212     -0.916215      0.000110
    3   C      3    1.8500  1.000      1.236162     -0.916199     -0.000041
    4   H      4    1.2000  1.000     -0.000063      0.860522      0.001398
    5   H      5    1.2000  1.000     -1.174011     -2.001995      0.000098
    6   C      6    1.8500  1.000     -2.488374     -0.364961     -0.000205
    7   H      7    1.2000  1.000      1.173970     -2.001979     -0.000325
    8   C      8    1.8500  1.000      2.488341     -0.364976     -0.000293
    9   H      9    1.2000  1.000     -3.332013     -1.046863      0.000180
   10   C     10    1.8500  1.000     -2.823972      1.092336     -0.000268
   11   H     11    1.2000  1.000      3.331955     -1.046913     -0.000505
   12   C     12    1.8500  1.000      2.824049      1.092293     -0.000036
   13   H     13    1.2000  1.000     -3.419817      1.345068      0.882068
   14   H     14    1.2000  1.000     -1.942788      1.731910     -0.010080
   15   H     15    1.2000  1.000     -3.436679      1.340877     -0.872038
   16   H     16    1.2000  1.000      3.431709      1.342220     -0.874979
   17   H     17    1.2000  1.000      1.942900      1.731974     -0.003766
   18   H     18    1.2000  1.000      3.425031      1.343530      0.879200
 ------------------------------------------------------------------------------
 ------------------------------------------------------------------------------
 Atomic radii for non-electrostatic terms: SMD-CDS.
 ------------------------------------------------------------------------------
 Nuclear repulsion after PCM non-electrostatic terms =      266.3621607380 Hartrees.
 One-electron integrals computed using PRISM.
 NBasis=   188 RedAO= T EigKep=  5.21D-06  NBF=   188
 NBsUse=   188 1.00D-06 EigRej= -1.00D+00 NBFU=   188
 ExpMin= 4.38D-02 ExpMax= 3.05D+03 ExpMxC= 4.57D+02 IAcc=3 IRadAn=         5 AccDes= 0.00D+00
 Harris functional with IExCor= 1009 and IRadAn=       5 diagonalized for initial guess.
 HarFok:  IExCor= 1009 AccDes= 0.00D+00 IRadAn=         5 IDoV= 1 UseB2=F ITyADJ=14
 ICtDFT=  3500011 ScaDFX=  1.000000  1.000000  1.000000  1.000000
 FoFCou: FMM=F IPFlag=           0 FMFlag=      100000 FMFlg1=           0
         NFxFlg=           0 DoJE=T BraDBF=F KetDBF=T FulRan=T
         wScrn=  0.000000 ICntrl=       500 IOpCl=  0 I1Cent=   200000004 NGrid=           0
         NMat0=    1 NMatS0=      1 NMatT0=    0 NMatD0=    1 NMtDS0=    0 NMtDT0=    0
 Petite list used in FoFCou.
 Initial guess <Sx>= 0.0000 <Sy>= 0.0000 <Sz>= 0.5000 <S**2>= 0.7500 S= 0.5000
 Requested convergence on RMS density matrix=1.00D-08 within  32 cycles.
 Requested convergence on MAX density matrix=1.00D-06.
 Requested convergence on             energy=1.00D-06.
 No special actions if energy rises.
 Inv3:  Mode=1 IEnd=     5981232.
 Iteration    1 A*A^-1 deviation from unit magnitude is 6.66D-15 for    401.
 Iteration    1 A*A^-1 deviation from orthogonality  is 2.41D-15 for    567    131.
 Iteration    1 A^-1*A deviation from unit magnitude is 6.00D-15 for    401.
 Iteration    1 A^-1*A deviation from orthogonality  is 1.91D-15 for    964    960.
 Error on total polarization charges =  0.05322
 SCF Done:  E(UM052X) =  -273.286682849     A.U. after   15 cycles
            NFock= 15  Conv=0.38D-08     -V/T= 2.0099
 <Sx>= 0.0000 <Sy>= 0.0000 <Sz>= 0.5000 <S**2>= 0.8133 S= 0.5312
 <L.S>= 0.000000000000E+00
 SMD-CDS (non-electrostatic) energy       (kcal/mol) =      -0.61
 (included in total energy above)
 Annihilation of the first spin contaminant:
 S**2 before annihilation     0.8133,   after     0.7520
 QCSCF skips out because SCF is already converged.

 **********************************************************************

            Population analysis using the SCF density.

 **********************************************************************

 Orbital symmetries:
 Alpha Orbitals:
       Occupied  (A) (A) (A) (A) (A) (A) (A) (A) (A) (A) (A) (A)
                 (A) (A) (A) (A) (A) (A) (A) (A) (A) (A) (A) (A)
                 (A) (A) (A)
       Virtual   (A) (A) (A) (A) (A) (A) (A) (A) (A) (A) (A) (A)
                 (A) (A) (A) (A) (A) (A) (A) (A) (A) (A) (A) (A)
                 (A) (A) (A) (A) (A) (A) (A) (A) (A) (A) (A) (A)
                 (A) (A) (A) (A) (A) (A) (A) (A) (A) (A) (A) (A)
                 (A) (A) (A) (A) (A) (A) (A) (A) (A) (A) (A) (A)
                 (A) (A) (A) (A) (A) (A) (A) (A) (A) (A) (A) (A)
                 (A) (A) (A) (A) (A) (A) (A) (A) (A) (A) (A) (A)
                 (A) (A) (A) (A) (A) (A) (A) (A) (A) (A) (A) (A)
                 (A) (A) (A) (A) (A) (A) (A) (A) (A) (A) (A) (A)
                 (A) (A) (A) (A) (A) (A) (A) (A) (A) (A) (A) (A)
                 (A) (A) (A) (A) (A) (A) (A) (A) (A) (A) (A) (A)
                 (A) (A) (A) (A) (A) (A) (A) (A) (A) (A) (A) (A)
                 (A) (A) (A) (A) (A) (A) (A) (A) (A) (A) (A) (A)
                 (A) (A) (A) (A) (A)
 Beta  Orbitals:
       Occupied  (A) (A) (A) (A) (A) (A) (A) (A) (A) (A) (A) (A)
                 (A) (A) (A) (A) (A) (A) (A) (A) (A) (A) (A) (A)
                 (A) (A)
       Virtual   (A) (A) (A) (A) (A) (A) (A) (A) (A) (A) (A) (A)
                 (A) (A) (A) (A) (A) (A) (A) (A) (A) (A) (A) (A)
                 (A) (A) (A) (A) (A) (A) (A) (A) (A) (A) (A) (A)
                 (A) (A) (A) (A) (A) (A) (A) (A) (A) (A) (A) (A)
                 (A) (A) (A) (A) (A) (A) (A) (A) (A) (A) (A) (A)
                 (A) (A) (A) (A) (A) (A) (A) (A) (A) (A) (A) (A)
                 (A) (A) (A) (A) (A) (A) (A) (A) (A) (A) (A) (A)
                 (A) (A) (A) (A) (A) (A) (A) (A) (A) (A) (A) (A)
                 (A) (A) (A) (A) (A) (A) (A) (A) (A) (A) (A) (A)
                 (A) (A) (A) (A) (A) (A) (A) (A) (A) (A) (A) (A)
                 (A) (A) (A) (A) (A) (A) (A) (A) (A) (A) (A) (A)
                 (A) (A) (A) (A) (A) (A) (A) (A) (A) (A) (A) (A)
                 (A) (A) (A) (A) (A) (A) (A) (A) (A) (A) (A) (A)
                 (A) (A) (A) (A) (A) (A)
 The electronic state is 2-A.
 Alpha  occ. eigenvalues --  -10.58318 -10.58318 -10.58228 -10.57252 -10.57248
 Alpha  occ. eigenvalues --  -10.56023 -10.56023  -0.93229  -0.89558  -0.83669
 Alpha  occ. eigenvalues --   -0.78130  -0.73169  -0.63264  -0.61684  -0.54523
 Alpha  occ. eigenvalues --   -0.54047  -0.48488  -0.48256  -0.48192  -0.48041
 Alpha  occ. eigenvalues --   -0.43779  -0.42525  -0.40930  -0.39855  -0.39844
 Alpha  occ. eigenvalues --   -0.31803  -0.21625
 Alpha virt. eigenvalues --    0.05228   0.05621   0.06646   0.06799   0.08617
 Alpha virt. eigenvalues --    0.08822   0.09203   0.09312   0.10376   0.11595
 Alpha virt. eigenvalues --    0.12139   0.12268   0.13552   0.14108   0.15054
 Alpha virt. eigenvalues --    0.15121   0.15183   0.16184   0.17752   0.19726
 Alpha virt. eigenvalues --    0.19770   0.20616   0.21904   0.22127   0.23300
 Alpha virt. eigenvalues --    0.25531   0.26068   0.26142   0.27002   0.28465
 Alpha virt. eigenvalues --    0.29052   0.29184   0.30358   0.30856   0.31024
 Alpha virt. eigenvalues --    0.32433   0.32720   0.34683   0.36569   0.37745
 Alpha virt. eigenvalues --    0.37836   0.41228   0.42524   0.46375   0.51729
 Alpha virt. eigenvalues --    0.52971   0.54491   0.65870   0.70629   0.72278
 Alpha virt. eigenvalues --    0.72535   0.73853   0.76717   0.77512   0.77588
 Alpha virt. eigenvalues --    0.78811   0.79549   0.80853   0.81130   0.82936
 Alpha virt. eigenvalues --    0.84499   0.85852   0.86552   0.92838   0.94887
 Alpha virt. eigenvalues --    1.01724   1.02416   1.03626   1.04363   1.06493
 Alpha virt. eigenvalues --    1.06923   1.07083   1.10326   1.12174   1.12194
 Alpha virt. eigenvalues --    1.16130   1.18689   1.20805   1.24249   1.26984
 Alpha virt. eigenvalues --    1.29603   1.35351   1.36933   1.36946   1.36979
 Alpha virt. eigenvalues --    1.40429   1.45781   1.46993   1.48438   1.51217
 Alpha virt. eigenvalues --    1.54939   1.58797   1.73039   1.74564   1.88571
 Alpha virt. eigenvalues --    1.89703   1.89930   1.91969   1.92962   1.99905
 Alpha virt. eigenvalues --    2.02920   2.03569   2.04054   2.11589   2.12893
 Alpha virt. eigenvalues --    2.13035   2.15308   2.18307   2.20587   2.20938
 Alpha virt. eigenvalues --    2.22460   2.24546   2.28982   2.31777   2.35088
 Alpha virt. eigenvalues --    2.39030   2.41813   2.44386   2.46472   2.49019
 Alpha virt. eigenvalues --    2.49661   2.49907   2.52604   2.54934   2.56060
 Alpha virt. eigenvalues --    2.61899   2.63713   2.67915   2.70462   2.71422
 Alpha virt. eigenvalues --    2.71576   2.72998   2.76172   2.80416   2.81177
 Alpha virt. eigenvalues --    2.88807   2.91602   2.92269   2.95750   3.00591
 Alpha virt. eigenvalues --    3.02638   3.13119   3.16222   3.29213   3.29958
 Alpha virt. eigenvalues --    3.36383   3.39110   3.49038   3.49837   3.53940
 Alpha virt. eigenvalues --    3.54080   3.57531   3.69304   3.73635   4.29842
 Alpha virt. eigenvalues --    4.35409   4.42157   4.49602   4.55550   4.65244
 Alpha virt. eigenvalues --    4.77923
  Beta  occ. eigenvalues --  -10.57834 -10.57833 -10.57645 -10.57498 -10.57481
  Beta  occ. eigenvalues --  -10.56057 -10.56057  -0.92292  -0.88637  -0.82759
  Beta  occ. eigenvalues --   -0.78077  -0.71883  -0.62498  -0.61256  -0.53983
  Beta  occ. eigenvalues --   -0.53858  -0.47756  -0.47731  -0.47411  -0.47218
  Beta  occ. eigenvalues --   -0.43652  -0.42311  -0.40613  -0.39628  -0.37313
  Beta  occ. eigenvalues --   -0.29268
  Beta virt. eigenvalues --   -0.03722   0.05771   0.06862   0.07067   0.07684
  Beta virt. eigenvalues --    0.09015   0.09181   0.09616   0.10025   0.10386
  Beta virt. eigenvalues --    0.11954   0.12353   0.12662   0.13462   0.14511
  Beta virt. eigenvalues --    0.15309   0.16213   0.16284   0.16663   0.18073
  Beta virt. eigenvalues --    0.19741   0.19841   0.20846   0.22149   0.23452
  Beta virt. eigenvalues --    0.24071   0.25731   0.26098   0.26111   0.27358
  Beta virt. eigenvalues --    0.28759   0.29252   0.29965   0.30886   0.31267
  Beta virt. eigenvalues --    0.31546   0.32451   0.33495   0.35205   0.37416
  Beta virt. eigenvalues --    0.38044   0.38156   0.41705   0.43021   0.47198
  Beta virt. eigenvalues --    0.51907   0.53248   0.54860   0.66070   0.71694
  Beta virt. eigenvalues --    0.72845   0.73033   0.74091   0.76626   0.77780
  Beta virt. eigenvalues --    0.79441   0.79801   0.81507   0.81562   0.83317
  Beta virt. eigenvalues --    0.83508   0.84919   0.86152   0.86289   0.93339
  Beta virt. eigenvalues --    0.95456   1.02230   1.02630   1.03879   1.04743
  Beta virt. eigenvalues --    1.06690   1.07411   1.08017   1.10659   1.12475
  Beta virt. eigenvalues --    1.12765   1.16052   1.19351   1.22367   1.24439
  Beta virt. eigenvalues --    1.27252   1.29834   1.36448   1.37056   1.37517
  Beta virt. eigenvalues --    1.38175   1.40729   1.45837   1.48443   1.50019
  Beta virt. eigenvalues --    1.51661   1.55798   1.59411   1.73181   1.74741
  Beta virt. eigenvalues --    1.89220   1.90663   1.90933   1.92469   1.93634
  Beta virt. eigenvalues --    2.00657   2.03107   2.04331   2.04723   2.12718
  Beta virt. eigenvalues --    2.13056   2.13177   2.16481   2.18475   2.20745
  Beta virt. eigenvalues --    2.21104   2.22901   2.24616   2.29678   2.31954
  Beta virt. eigenvalues --    2.35219   2.39258   2.42168   2.44543   2.46857
  Beta virt. eigenvalues --    2.49669   2.50016   2.50655   2.53112   2.55315
  Beta virt. eigenvalues --    2.56177   2.62171   2.64413   2.67810   2.70966
  Beta virt. eigenvalues --    2.71872   2.71884   2.73452   2.76509   2.80569
  Beta virt. eigenvalues --    2.81867   2.89172   2.91816   2.92507   2.95834
  Beta virt. eigenvalues --    3.01110   3.03082   3.13403   3.16706   3.29674
  Beta virt. eigenvalues --    3.30242   3.36810   3.40539   3.49152   3.49954
  Beta virt. eigenvalues --    3.54028   3.54196   3.59604   3.70801   3.74132
  Beta virt. eigenvalues --    4.30211   4.35954   4.43237   4.49233   4.55676
  Beta virt. eigenvalues --    4.65667   4.78399
          Condensed to atoms (all electrons):
               1          2          3          4          5          6
     1  C    6.542042  -0.712634  -0.712851   0.374062   0.012642   0.355161
     2  C   -0.712634   6.998965   0.113484  -0.021892   0.316353  -0.786070
     3  C   -0.712851   0.113484   6.999552  -0.021905  -0.020727   0.190734
     4  H    0.374062  -0.021892  -0.021905   0.514714   0.003528  -0.007126
     5  H    0.012642   0.316353  -0.020727   0.003528   0.527398  -0.004783
     6  C    0.355161  -0.786070   0.190734  -0.007126  -0.004783   6.285279
     7  H    0.012645  -0.020734   0.316328   0.003527   0.001679   0.007305
     8  C    0.355462   0.190608  -0.786569  -0.007132   0.007312  -0.191942
     9  H    0.019051  -0.042359  -0.010759   0.000010  -0.007444   0.365618
    10  C   -0.097543   0.157952  -0.088251  -0.002686  -0.000730   0.070224
    11  H    0.019050  -0.010761  -0.042373   0.000010  -0.000004  -0.000822
    12  C   -0.097541  -0.088248   0.157929  -0.002685  -0.000079   0.033061
    13  H   -0.014053   0.019587   0.002458  -0.000031  -0.000107  -0.070019
    14  H   -0.005740   0.034877  -0.014751   0.000454   0.000009  -0.101025
    15  H   -0.013835   0.020279   0.002476  -0.000027  -0.000106  -0.070591
    16  H   -0.013908   0.002472   0.020069  -0.000028   0.000000   0.000325
    17  H   -0.005737  -0.014748   0.034868   0.000455  -0.000001  -0.001183
    18  H   -0.013983   0.002462   0.019820  -0.000030   0.000000   0.000331
               7          8          9         10         11         12
     1  C    0.012645   0.355462   0.019051  -0.097543   0.019050  -0.097541
     2  C   -0.020734   0.190608  -0.042359   0.157952  -0.010761  -0.088248
     3  C    0.316328  -0.786569  -0.010759  -0.088251  -0.042373   0.157929
     4  H    0.003527  -0.007132   0.000010  -0.002686   0.000010  -0.002685
     5  H    0.001679   0.007312  -0.007444  -0.000730  -0.000004  -0.000079
     6  C    0.007305  -0.191942   0.365618   0.070224  -0.000822   0.033061
     7  H    0.527401  -0.004749  -0.000004  -0.000080  -0.007445  -0.000727
     8  C   -0.004749   6.285611  -0.000821   0.033060   0.365629   0.070228
     9  H   -0.000004  -0.000821   0.513701  -0.006991  -0.000000   0.000003
    10  C   -0.000080   0.033060  -0.006991   5.382549   0.000003  -0.013421
    11  H   -0.007445   0.365629  -0.000000   0.000003   0.513707  -0.006987
    12  C   -0.000727   0.070228   0.000003  -0.013421  -0.006987   5.382570
    13  H    0.000000   0.000331  -0.002186   0.418941  -0.000000  -0.000058
    14  H   -0.000001  -0.001184   0.003482   0.448833  -0.000000  -0.000695
    15  H    0.000000   0.000325  -0.002321   0.418839  -0.000000  -0.000057
    16  H   -0.000106  -0.070387  -0.000000  -0.000059  -0.002282   0.418849
    17  H    0.000009  -0.101022  -0.000000  -0.000695   0.003482   0.448835
    18  H   -0.000107  -0.070244  -0.000000  -0.000056  -0.002226   0.418930
              13         14         15         16         17         18
     1  C   -0.014053  -0.005740  -0.013835  -0.013908  -0.005737  -0.013983
     2  C    0.019587   0.034877   0.020279   0.002472  -0.014748   0.002462
     3  C    0.002458  -0.014751   0.002476   0.020069   0.034868   0.019820
     4  H   -0.000031   0.000454  -0.000027  -0.000028   0.000455  -0.000030
     5  H   -0.000107   0.000009  -0.000106   0.000000  -0.000001   0.000000
     6  C   -0.070019  -0.101025  -0.070591   0.000325  -0.001183   0.000331
     7  H    0.000000  -0.000001   0.000000  -0.000106   0.000009  -0.000107
     8  C    0.000331  -0.001184   0.000325  -0.070387  -0.101022  -0.070244
     9  H   -0.002186   0.003482  -0.002321  -0.000000  -0.000000  -0.000000
    10  C    0.418941   0.448833   0.418839  -0.000059  -0.000695  -0.000056
    11  H   -0.000000  -0.000000  -0.000000  -0.002282   0.003482  -0.002226
    12  C   -0.000058  -0.000695  -0.000057   0.418849   0.448835   0.418930
    13  H    0.515362  -0.025361  -0.028326   0.000000   0.000000   0.000000
    14  H   -0.025361   0.517454  -0.025339   0.000000  -0.000026   0.000000
    15  H   -0.028326  -0.025339   0.515524   0.000000   0.000000   0.000000
    16  H    0.000000   0.000000   0.000000   0.515481  -0.025344  -0.028327
    17  H    0.000000  -0.000026   0.000000  -0.025344   0.517447  -0.025356
    18  H    0.000000   0.000000   0.000000  -0.028327  -0.025356   0.515412
          Atomic-Atomic Spin Densities.
               1          2          3          4          5          6
     1  C    0.653645   0.055146   0.055162  -0.024121  -0.011766  -0.099021
     2  C    0.055146  -0.446667   0.003054   0.011985   0.011625   0.128033
     3  C    0.055162   0.003054  -0.446729   0.011984   0.003562  -0.017100
     4  H   -0.024121   0.011985   0.011984  -0.024418  -0.000047  -0.002563
     5  H   -0.011766   0.011625   0.003562  -0.000047   0.007873  -0.003697
     6  C   -0.099021   0.128033  -0.017100  -0.002563  -0.003697   0.557117
     7  H   -0.011765   0.003562   0.011622  -0.000047  -0.000073  -0.000133
     8  C   -0.099053  -0.017080   0.128097  -0.002561  -0.000132   0.026084
     9  H    0.000376  -0.006060  -0.000450  -0.000003   0.000085   0.003129
    10  C    0.019565  -0.019385   0.004268   0.002290   0.001647  -0.038884
    11  H    0.000376  -0.000449  -0.006059  -0.000003   0.000001  -0.000156
    12  C    0.019561   0.004274  -0.019374   0.002290   0.000044  -0.005129
    13  H    0.002570   0.000219  -0.000123  -0.000006   0.000000  -0.014517
    14  H   -0.001311   0.000327  -0.000532   0.000193   0.000001   0.000034
    15  H    0.002447   0.000558  -0.000087  -0.000006   0.000000  -0.014320
    16  H    0.002437  -0.000098   0.000459  -0.000006   0.000000  -0.000023
    17  H   -0.001311  -0.000532   0.000323   0.000193   0.000000  -0.000284
    18  H    0.002579  -0.000112   0.000321  -0.000006  -0.000000  -0.000016
               7          8          9         10         11         12
     1  C   -0.011765  -0.099053   0.000376   0.019565   0.000376   0.019561
     2  C    0.003562  -0.017080  -0.006060  -0.019385  -0.000449   0.004274
     3  C    0.011622   0.128097  -0.000450   0.004268  -0.006059  -0.019374
     4  H   -0.000047  -0.002561  -0.000003   0.002290  -0.000003   0.002290
     5  H   -0.000073  -0.000132   0.000085   0.001647   0.000001   0.000044
     6  C   -0.000133   0.026084   0.003129  -0.038884  -0.000156  -0.005129
     7  H    0.007874  -0.003694   0.000001   0.000044   0.000085   0.001647
     8  C   -0.003694   0.557075  -0.000156  -0.005129   0.003128  -0.038893
     9  H    0.000001  -0.000156  -0.021873   0.001913   0.000000  -0.000009
    10  C    0.000044  -0.005129   0.001913  -0.024607  -0.000009   0.001316
    11  H    0.000085   0.003128   0.000000  -0.000009  -0.021873   0.001913
    12  C    0.001647  -0.038893  -0.000009   0.001316   0.001913  -0.024612
    13  H   -0.000000  -0.000019   0.000115   0.009789   0.000000   0.000017
    14  H    0.000000  -0.000284  -0.000056   0.002591   0.000000  -0.000051
    15  H   -0.000000  -0.000019   0.000122   0.009310   0.000000   0.000015
    16  H    0.000000  -0.014349   0.000000   0.000014   0.000120   0.009471
    17  H    0.000001   0.000037   0.000000  -0.000051  -0.000056   0.002593
    18  H    0.000000  -0.014491   0.000000   0.000018   0.000117   0.009628
              13         14         15         16         17         18
     1  C    0.002570  -0.001311   0.002447   0.002437  -0.001311   0.002579
     2  C    0.000219   0.000327   0.000558  -0.000098  -0.000532  -0.000112
     3  C   -0.000123  -0.000532  -0.000087   0.000459   0.000323   0.000321
     4  H   -0.000006   0.000193  -0.000006  -0.000006   0.000193  -0.000006
     5  H    0.000000   0.000001   0.000000   0.000000   0.000000  -0.000000
     6  C   -0.014517   0.000034  -0.014320  -0.000023  -0.000284  -0.000016
     7  H   -0.000000   0.000000  -0.000000   0.000000   0.000001   0.000000
     8  C   -0.000019  -0.000284  -0.000019  -0.014349   0.000037  -0.014491
     9  H    0.000115  -0.000056   0.000122   0.000000   0.000000   0.000000
    10  C    0.009789   0.002591   0.009310   0.000014  -0.000051   0.000018
    11  H    0.000000   0.000000   0.000000   0.000120  -0.000056   0.000117
    12  C    0.000017  -0.000051   0.000015   0.009471   0.002593   0.009628
    13  H    0.022733  -0.000286  -0.004870  -0.000000   0.000000   0.000000
    14  H   -0.000286   0.000367  -0.000126   0.000000  -0.000001  -0.000000
    15  H   -0.004870  -0.000126   0.022239   0.000000   0.000000  -0.000000
    16  H   -0.000000   0.000000   0.000000   0.022387  -0.000172  -0.004871
    17  H    0.000000  -0.000001   0.000000  -0.000172   0.000363  -0.000240
    18  H    0.000000  -0.000000  -0.000000  -0.004871  -0.000240   0.022591
 Mulliken charges and spin densities:
               1          2
     1  C   -0.002290   0.565517
     2  C   -0.159593  -0.271599
     3  C   -0.159532  -0.271601
     4  H    0.166783  -0.024852
     5  H    0.165060   0.009124
     6  C   -0.074478   0.518555
     7  H    0.165058   0.009124
     8  C   -0.074516   0.518560
     9  H    0.171019  -0.022867
    10  C   -0.719890  -0.035298
    11  H    0.171017  -0.022867
    12  C   -0.719905  -0.035297
    13  H    0.183462   0.015623
    14  H    0.169012   0.000866
    15  H    0.183159   0.015263
    16  H    0.183247   0.015369
    17  H    0.169016   0.000863
    18  H    0.183373   0.015518
 Sum of Mulliken charges =  -0.00000   1.00000
 Mulliken charges and spin densities with hydrogens summed into heavy atoms:
               1          2
     1  C    0.164493   0.540665
     2  C    0.005467  -0.262475
     3  C    0.005526  -0.262477
     6  C    0.096541   0.495689
     8  C    0.096500   0.495693
    10  C   -0.184257  -0.003547
    12  C   -0.184270  -0.003546
 Electronic spatial extent (au):  <R**2>=           1242.0975
 Charge=             -0.0000 electrons
 Dipole moment (field-independent basis, Debye):
    X=              0.0001    Y=              0.8231    Z=              0.0032  Tot=              0.8231
 Quadrupole moment (field-independent basis, Debye-Ang):
   XX=            -36.9361   YY=            -41.0176   ZZ=            -49.0150
   XY=             -0.0000   XZ=             -0.0042   YZ=              0.0023
 Traceless Quadrupole moment (field-independent basis, Debye-Ang):
   XX=              5.3868   YY=              1.3053   ZZ=             -6.6921
   XY=             -0.0000   XZ=             -0.0042   YZ=              0.0023
 Octapole moment (field-independent basis, Debye-Ang**2):
  XXX=              0.0008  YYY=             -3.9638  ZZZ=              0.0338  XYY=              0.0001
  XXY=              3.2866  XXZ=             -0.0079  XZZ=              0.0004  YZZ=              4.7880
  YYZ=              0.0005  XYZ=             -0.0015
 Hexadecapole moment (field-independent basis, Debye-Ang**3):
 XXXX=          -1257.4606 YYYY=           -282.3945 ZZZZ=            -74.1774 XXXY=              0.0008
 XXXZ=              0.0617 YYYX=              0.0003 YYYZ=             -0.0056 ZZZX=             -0.0406
 ZZZY=              0.0430 XXYY=           -265.5141 XXZZ=           -245.5066 YYZZ=            -64.5247
 XXYZ=              0.0087 YYXZ=             -0.0159 ZZXY=             -0.0001
 N-N= 2.663621607380D+02 E-N=-1.164126470664D+03  KE= 2.706093233839D+02
                          Isotropic Fermi Contact Couplings
        Atom                 a.u.       MegaHertz       Gauss      10(-4) cm-1
     1  C(13)              0.09675     108.77090      38.81216      36.28207
     2  C(13)             -0.05287     -59.43904     -21.20933     -19.82673
     3  C(13)             -0.05287     -59.43939     -21.20945     -19.82685
     4  H(1)              -0.00795     -35.54950     -12.68495     -11.85804
     5  H(1)               0.00268      11.97441       4.27277       3.99423
     6  C(13)              0.07995      89.87544      32.06979      29.97922
     7  H(1)               0.00268      11.97444       4.27278       3.99424
     8  C(13)              0.07995      89.87537      32.06977      29.97919
     9  H(1)              -0.00685     -30.63066     -10.92978     -10.21729
    10  C(13)             -0.01203     -13.51999      -4.82427      -4.50978
    11  H(1)              -0.00685     -30.63070     -10.92979     -10.21730
    12  C(13)             -0.01203     -13.52001      -4.82428      -4.50979
    13  H(1)               0.00875      39.09828      13.95124      13.04178
    14  H(1)               0.00021       0.94901       0.33863       0.31656
    15  H(1)               0.00856      38.24880      13.64812      12.75843
    16  H(1)               0.00861      38.49930      13.73751      12.84198
    17  H(1)               0.00021       0.94501       0.33720       0.31522
    18  H(1)               0.00869      38.85454      13.86427      12.96048
 --------------------------------------------------------
       Center         ----  Spin Dipole Couplings  ----
                      3XX-RR        3YY-RR        3ZZ-RR
 --------------------------------------------------------
     1   Atom       -0.278905     -0.284021      0.562926
     2   Atom        0.114420      0.078702     -0.193122
     3   Atom        0.114422      0.078701     -0.193122
     4   Atom       -0.031095      0.033962     -0.002867
     5   Atom        0.012778     -0.005431     -0.007347
     6   Atom       -0.234494     -0.238936      0.473429
     7   Atom        0.012779     -0.005432     -0.007347
     8   Atom       -0.234494     -0.238936      0.473430
     9   Atom        0.007256     -0.006541     -0.000714
    10   Atom       -0.004880     -0.001137      0.006016
    11   Atom        0.007253     -0.006539     -0.000714
    12   Atom       -0.004881     -0.001137      0.006018
    13   Atom       -0.000072      0.003005     -0.002933
    14   Atom       -0.001036      0.005699     -0.004663
    15   Atom        0.000039      0.002974     -0.003013
    16   Atom        0.000006      0.002984     -0.002990
    17   Atom       -0.001037      0.005699     -0.004662
    18   Atom       -0.000037      0.002994     -0.002956
 --------------------------------------------------------
                        XY            XZ            YZ
 --------------------------------------------------------
     1   Atom        0.000000     -0.000036     -0.000491
     2   Atom        0.001242      0.000070      0.000032
     3   Atom       -0.001243     -0.000095      0.000084
     4   Atom       -0.000002      0.000003     -0.000013
     5   Atom        0.001211      0.000008      0.000003
     6   Atom        0.005267      0.000037      0.000284
     7   Atom       -0.001211     -0.000008      0.000002
     8   Atom       -0.005268      0.000177     -0.000055
     9   Atom        0.032493     -0.000036     -0.000011
    10   Atom       -0.002536      0.000057      0.000048
    11   Atom       -0.032493      0.000005      0.000003
    12   Atom        0.002536     -0.000022      0.000018
    13   Atom       -0.004841     -0.003188      0.003271
    14   Atom       -0.000994      0.000014     -0.000039
    15   Atom       -0.004891      0.003155     -0.003221
    16   Atom        0.004877     -0.003164     -0.003235
    17   Atom        0.000994     -0.000006     -0.000014
    18   Atom        0.004856      0.003180      0.003256
 --------------------------------------------------------


 ---------------------------------------------------------------------------------
              Anisotropic Spin Dipole Couplings in Principal Axis System
 ---------------------------------------------------------------------------------

       Atom             a.u.   MegaHertz   Gauss  10(-4) cm-1        Axes

              Baa    -0.2840   -38.113   -13.600   -12.713 -0.0001  1.0000  0.0006
     1 C(13)  Bbb    -0.2789   -37.426   -13.355   -12.484  1.0000  0.0001  0.0000
              Bcc     0.5629    75.539    26.954    25.197 -0.0000 -0.0006  1.0000
 
              Baa    -0.1931   -25.915    -9.247    -8.644 -0.0002 -0.0001  1.0000
     2 C(13)  Bbb     0.0787    10.555     3.766     3.521 -0.0347  0.9994  0.0001
              Bcc     0.1145    15.360     5.481     5.123  0.9994  0.0347  0.0002
 
              Baa    -0.1931   -25.915    -9.247    -8.644  0.0003 -0.0003  1.0000
     3 C(13)  Bbb     0.0787    10.555     3.766     3.521  0.0347  0.9994  0.0003
              Bcc     0.1145    15.360     5.481     5.124  0.9994 -0.0347 -0.0003
 
              Baa    -0.0311   -16.591    -5.920    -5.534  1.0000  0.0000 -0.0001
     4 H(1)   Bbb    -0.0029    -1.530    -0.546    -0.510  0.0001  0.0004  1.0000
              Bcc     0.0340    18.120     6.466     6.044 -0.0000  1.0000 -0.0004
 
              Baa    -0.0073    -3.920    -1.399    -1.308 -0.0003 -0.0011  1.0000
     5 H(1)   Bbb    -0.0055    -2.941    -1.049    -0.981 -0.0661  0.9978  0.0011
              Bcc     0.0129     6.861     2.448     2.288  0.9978  0.0661  0.0004
 
              Baa    -0.2424   -32.532   -11.608   -10.851 -0.5529  0.8332 -0.0003
     6 C(13)  Bbb    -0.2310   -30.998   -11.061   -10.340  0.8332  0.5529 -0.0003
              Bcc     0.4734    63.530    22.669    21.191  0.0001  0.0004  1.0000
 
              Baa    -0.0073    -3.920    -1.399    -1.308  0.0004 -0.0009  1.0000
     7 H(1)   Bbb    -0.0055    -2.941    -1.049    -0.981  0.0661  0.9978  0.0009
              Bcc     0.0129     6.861     2.448     2.289  0.9978 -0.0661 -0.0004
 
              Baa    -0.2424   -32.532   -11.608   -10.852  0.5530  0.8332 -0.0001
     8 C(13)  Bbb    -0.2310   -30.998   -11.061   -10.340  0.8332 -0.5530 -0.0003
              Bcc     0.4734    63.530    22.669    21.191  0.0003 -0.0001  1.0000
 
              Baa    -0.0329   -17.533    -6.256    -5.848 -0.6294  0.7771 -0.0005
     9 H(1)   Bbb    -0.0007    -0.381    -0.136    -0.127  0.0005  0.0010  1.0000
              Bcc     0.0336    17.914     6.392     5.975  0.7771  0.6294 -0.0010
 
              Baa    -0.0062    -0.827    -0.295    -0.276  0.8927  0.4507 -0.0060
    10 C(13)  Bbb     0.0001     0.019     0.007     0.006 -0.4507  0.8927 -0.0029
              Bcc     0.0060     0.807     0.288     0.269  0.0040  0.0053  1.0000
 
              Baa    -0.0329   -17.532    -6.256    -5.848  0.6294  0.7770 -0.0002
    11 H(1)   Bbb    -0.0007    -0.381    -0.136    -0.127  0.0001  0.0002  1.0000
              Bcc     0.0336    17.914     6.392     5.975  0.7770 -0.6294  0.0001
 
              Baa    -0.0062    -0.827    -0.295    -0.276  0.8927 -0.4507  0.0023
    12 C(13)  Bbb     0.0001     0.019     0.007     0.006  0.4507  0.8927 -0.0011
              Bcc     0.0060     0.808     0.288     0.269 -0.0016  0.0020  1.0000
 
              Baa    -0.0050    -2.668    -0.952    -0.890  0.5170 -0.0367  0.8552
    13 H(1)   Bbb    -0.0034    -1.794    -0.640    -0.598  0.6440  0.6748 -0.3604
              Bcc     0.0084     4.462     1.592     1.488 -0.5639  0.7371  0.3725
 
              Baa    -0.0047    -2.488    -0.888    -0.830 -0.0029  0.0035  1.0000
    14 H(1)   Bbb    -0.0012    -0.630    -0.225    -0.210  0.9897  0.1430  0.0024
              Bcc     0.0058     3.118     1.112     1.040 -0.1430  0.9897 -0.0039
 
              Baa    -0.0050    -2.666    -0.951    -0.889 -0.5006  0.0422  0.8646
    15 H(1)   Bbb    -0.0034    -1.800    -0.642    -0.600  0.6513  0.6764  0.3440
              Bcc     0.0084     4.466     1.594     1.490 -0.5703  0.7353 -0.3661
 
              Baa    -0.0050    -2.667    -0.952    -0.890  0.5056  0.0403  0.8618
    16 H(1)   Bbb    -0.0034    -1.798    -0.642    -0.600 -0.6490  0.6759  0.3492
              Bcc     0.0084     4.465     1.593     1.489  0.5684  0.7359 -0.3679
 
              Baa    -0.0047    -2.488    -0.888    -0.830  0.0013  0.0012  1.0000
    17 H(1)   Bbb    -0.0012    -0.630    -0.225    -0.210  0.9897 -0.1430 -0.0011
              Bcc     0.0058     3.117     1.112     1.040  0.1430  0.9897 -0.0014
 
              Baa    -0.0050    -2.668    -0.952    -0.890 -0.5122 -0.0384  0.8580
    18 H(1)   Bbb    -0.0034    -1.795    -0.641    -0.599 -0.6461  0.6755 -0.3554
              Bcc     0.0084     4.463     1.593     1.489  0.5659  0.7364  0.3708
 

 ---------------------------------------------------------------------------------

 D1PCM: PCM CHGder 1st derivatives, ID1Alg=3 FixD1E=F DoIter=F DoCFld=F I1PDM=0.
 Calling FoFJK, ICntrl=      2127 FMM=F ISym2X=0 I1Cent= 0 IOpClX= 1 NMat=1 NMatS=1 NMatT=0.
 ***** Axes restored to original set *****
 -------------------------------------------------------------------
 Center     Atomic                   Forces (Hartrees/Bohr)
 Number     Number              X              Y              Z
 -------------------------------------------------------------------
      1        6          -0.000001286   -0.000286577   -0.000003051
      2        6          -0.000020665    0.000311449   -0.000000526
      3        6           0.000025368    0.000313384    0.000002140
      4        1           0.000003025   -0.000036306   -0.000000777
      5        1          -0.000084735   -0.000192818   -0.000001056
      6        6           0.000274071    0.000066997    0.000001384
      7        1           0.000082961   -0.000193186   -0.000001634
      8        6          -0.000273646    0.000065517    0.000001457
      9        1          -0.000230314   -0.000160689    0.000003554
     10        6           0.000072969   -0.000329276    0.000006755
     11        1           0.000228577   -0.000160821    0.000002411
     12        6          -0.000072576   -0.000326441    0.000008801
     13        1          -0.000138316    0.000124702    0.000252049
     14        1           0.000009821    0.000214582   -0.000003478
     15        1          -0.000138894    0.000126557   -0.000258770
     16        1           0.000138559    0.000125365   -0.000257220
     17        1          -0.000013860    0.000213653   -0.000003903
     18        1           0.000138941    0.000123909    0.000251863
 -------------------------------------------------------------------
 Cartesian Forces:  Max     0.000329276 RMS     0.000161099

 GradGradGradGradGradGradGradGradGradGradGradGradGradGradGradGradGradGrad
 Berny optimization.
 FormGI is forming the generalized inverse of G from B-inverse, IUseBI=4.
 Internal  Forces:  Max     0.000412252 RMS     0.000164053
 Search for a local minimum.
 Step number   1 out of a maximum of   82
 All quantities printed in internal units (Hartrees-Bohrs-Radians)
 Mixed Optimization -- En-DIIS/RFO-DIIS
 Second derivative matrix not updated -- first step.
 ITU=  0
     Eigenvalues ---    0.00826   0.00826   0.01509   0.01509   0.01854
     Eigenvalues ---    0.01854   0.01854   0.02185   0.02185   0.02510
     Eigenvalues ---    0.02510   0.07014   0.07014   0.07430   0.07431
     Eigenvalues ---    0.16000   0.16000   0.16000   0.16000   0.16000
     Eigenvalues ---    0.16000   0.16000   0.16000   0.16000   0.16000
     Eigenvalues ---    0.16000   0.22000   0.22000   0.22000   0.22000
     Eigenvalues ---    0.22000   0.32860   0.32861   0.34324   0.34328
     Eigenvalues ---    0.34334   0.34337   0.34944   0.34944   0.35096
     Eigenvalues ---    0.35096   0.35424   0.35425   0.35691   0.42798
     Eigenvalues ---    0.42798   0.51336   0.51337
 RFO step:  Lambda=-7.75371714D-06 EMin= 8.26268582D-03
 Linear search not attempted -- first point.
 Iteration  1 RMS(Cart)=  0.00486792 RMS(Int)=  0.00000423
 Iteration  2 RMS(Cart)=  0.00000924 RMS(Int)=  0.00000005
 Iteration  3 RMS(Cart)=  0.00000000 RMS(Int)=  0.00000005
 Variable       Old X    -DE/DX   Delta X   Delta X   Delta X     New X
                                 (Linear)    (Quad)   (Total)
    R1        2.67920   0.00014   0.00000   0.00034   0.00034   2.67954
    R2        2.67920   0.00014   0.00000   0.00033   0.00033   2.67953
    R3        2.04568  -0.00004   0.00000  -0.00010  -0.00010   2.04558
    R4        2.05519   0.00019   0.00000   0.00053   0.00053   2.05573
    R5        2.58540   0.00016   0.00000   0.00030   0.00030   2.58570
    R6        2.05519   0.00019   0.00000   0.00054   0.00054   2.05573
    R7        2.58540   0.00015   0.00000   0.00029   0.00029   2.58570
    R8        2.04991   0.00028   0.00000   0.00079   0.00079   2.05070
    R9        2.82597   0.00018   0.00000   0.00054   0.00054   2.82651
   R10        2.04992   0.00028   0.00000   0.00079   0.00079   2.05070
   R11        2.82597   0.00018   0.00000   0.00054   0.00054   2.82650
   R12        2.06787   0.00031   0.00000   0.00090   0.00090   2.06876
   R13        2.05766   0.00013   0.00000   0.00038   0.00038   2.05805
   R14        2.06764   0.00031   0.00000   0.00091   0.00091   2.06855
   R15        2.06771   0.00031   0.00000   0.00091   0.00091   2.06862
   R16        2.05766   0.00014   0.00000   0.00039   0.00039   2.05805
   R17        2.06781   0.00031   0.00000   0.00089   0.00089   2.06870
    A1        2.11823   0.00017   0.00000   0.00078   0.00078   2.11902
    A2        2.08245  -0.00008   0.00000  -0.00037  -0.00037   2.08208
    A3        2.08250  -0.00009   0.00000  -0.00041  -0.00041   2.08209
    A4        2.02526  -0.00009   0.00000  -0.00023  -0.00023   2.02503
    A5        2.21520   0.00037   0.00000   0.00168   0.00168   2.21688
    A6        2.04273  -0.00028   0.00000  -0.00146  -0.00146   2.04127
    A7        2.02526  -0.00009   0.00000  -0.00022  -0.00022   2.02503
    A8        2.21523   0.00036   0.00000   0.00165   0.00165   2.21689
    A9        2.04270  -0.00028   0.00000  -0.00143  -0.00143   2.04127
   A10        2.04711  -0.00019   0.00000  -0.00081  -0.00081   2.04630
   A11        2.21185   0.00041   0.00000   0.00187   0.00187   2.21372
   A12        2.02423  -0.00023   0.00000  -0.00106  -0.00106   2.02316
   A13        2.04710  -0.00018   0.00000  -0.00080  -0.00080   2.04630
   A14        2.21190   0.00040   0.00000   0.00184   0.00184   2.21373
   A15        2.02419  -0.00022   0.00000  -0.00104  -0.00104   2.02315
   A16        1.92541   0.00002   0.00000   0.00014   0.00014   1.92555
   A17        1.97228   0.00021   0.00000   0.00132   0.00132   1.97360
   A18        1.92523   0.00002   0.00000   0.00012   0.00012   1.92535
   A19        1.88837  -0.00012   0.00000  -0.00075  -0.00075   1.88762
   A20        1.85987  -0.00002   0.00000  -0.00013  -0.00013   1.85974
   A21        1.88870  -0.00013   0.00000  -0.00081  -0.00081   1.88788
   A22        1.92529   0.00002   0.00000   0.00012   0.00011   1.92541
   A23        1.97231   0.00021   0.00000   0.00130   0.00129   1.97361
   A24        1.92535   0.00002   0.00000   0.00014   0.00014   1.92549
   A25        1.88861  -0.00012   0.00000  -0.00080  -0.00080   1.88781
   A26        1.85986  -0.00002   0.00000  -0.00013  -0.00013   1.85973
   A27        1.88843  -0.00012   0.00000  -0.00074  -0.00074   1.88769
    D1        0.00078  -0.00000   0.00000  -0.00011  -0.00011   0.00067
    D2       -3.14088  -0.00000   0.00000  -0.00011  -0.00011  -3.14099
    D3       -3.14070  -0.00000   0.00000  -0.00001  -0.00001  -3.14071
    D4        0.00083  -0.00000   0.00000  -0.00002  -0.00002   0.00081
    D5       -0.00049   0.00000   0.00000   0.00011   0.00011  -0.00037
    D6        3.14108   0.00000   0.00000   0.00010   0.00010   3.14118
    D7        3.14099   0.00000   0.00000   0.00002   0.00002   3.14100
    D8       -0.00063   0.00000   0.00000   0.00001   0.00001  -0.00063
    D9       -3.14088   0.00000   0.00000   0.00002   0.00002  -3.14087
   D10        0.00007   0.00000   0.00000   0.00002   0.00002   0.00010
   D11        0.00065   0.00000   0.00000   0.00001   0.00001   0.00066
   D12       -3.14158   0.00000   0.00000   0.00002   0.00002  -3.14156
   D13        3.14136  -0.00000   0.00000  -0.00002  -0.00002   3.14134
   D14       -0.00001  -0.00000   0.00000  -0.00004  -0.00004  -0.00005
   D15       -0.00026  -0.00000   0.00000  -0.00003  -0.00003  -0.00029
   D16        3.14156  -0.00000   0.00000  -0.00005  -0.00005   3.14151
   D17       -2.10638  -0.00000   0.00000  -0.00025  -0.00025  -2.10663
   D18        0.01003   0.00000   0.00000  -0.00020  -0.00020   0.00983
   D19        2.12672  -0.00000   0.00000  -0.00025  -0.00025   2.12648
   D20        1.03458  -0.00000   0.00000  -0.00024  -0.00024   1.03434
   D21       -3.13220   0.00000   0.00000  -0.00019  -0.00019  -3.13239
   D22       -1.01550  -0.00000   0.00000  -0.00024  -0.00024  -1.01574
   D23       -2.12080   0.00000   0.00000   0.00012   0.00012  -2.12068
   D24       -0.00415  -0.00000   0.00000   0.00007   0.00007  -0.00408
   D25        2.11231   0.00000   0.00000   0.00012   0.00012   2.11244
   D26        1.02102   0.00000   0.00000   0.00010   0.00010   1.02112
   D27        3.13766  -0.00000   0.00000   0.00005   0.00005   3.13772
   D28       -1.02906   0.00000   0.00000   0.00010   0.00010  -1.02896
         Item               Value     Threshold  Converged?
 Maximum Force            0.000412     0.000450     YES
 RMS     Force            0.000164     0.000300     YES
 Maximum Displacement     0.016285     0.001800     NO 
 RMS     Displacement     0.004875     0.001200     NO 
 Predicted change in Energy=-3.876859D-06
 GradGradGradGradGradGradGradGradGradGradGradGradGradGradGradGradGradGrad

                          Input orientation:                          
 ---------------------------------------------------------------------
 Center     Atomic      Atomic             Coordinates (Angstroms)
 Number     Number       Type             X           Y           Z
 ---------------------------------------------------------------------
      1          6           0       -0.000001   -0.220810    0.000432
      2          6           0       -1.236622   -0.914606    0.000080
      3          6           0        1.236606   -0.914623   -0.000065
      4          1           0        0.000000    0.861663    0.001298
      5          1           0       -1.174598   -2.000679    0.000062
      6          6           0       -2.489633   -0.364887   -0.000164
      7          1           0        1.174567   -2.000695   -0.000360
      8          6           0        2.489628   -0.364932   -0.000252
      9          1           0       -3.332172   -1.048812    0.000277
     10          6           0       -2.829886    1.091622   -0.000230
     11          1           0        3.332151   -1.048878   -0.000401
     12          6           0        2.829930    1.091562   -0.000028
     13          1           0       -3.426947    1.342694    0.882347
     14          1           0       -1.951406    1.735251   -0.009902
     15          1           0       -3.443493    1.338500   -0.872443
     16          1           0        3.438592    1.339817   -0.875351
     17          1           0        1.951440    1.735240   -0.003768
     18          1           0        3.432002    1.341197    0.879508
 ---------------------------------------------------------------------
                    Distance matrix (angstroms):
                    1          2          3          4          5
     1  C    0.000000
     2  C    1.417950   0.000000
     3  C    1.417948   2.473228   0.000000
     4  H    1.082473   2.164339   2.164344   0.000000
     5  H    2.132514   1.087843   2.644509   3.093976   0.000000
     6  C    2.493797   1.368294   3.766573   2.775374   2.098841
     7  H    2.132512   2.644508   1.087843   3.093979   2.349166
     8  C    2.493797   3.766574   1.368292   2.775389   4.012758
     9  H    3.433504   2.099843   4.570749   3.841001   2.358214
    10  C    3.119411   2.561922   4.534466   2.839215   3.507464
    11  H    3.433502   4.570745   2.099840   3.841015   4.606160
    12  C    3.119428   4.534485   2.561925   2.839253   5.059467
    13  H    3.868627   3.266699   5.255746   3.570939   4.126700
    14  H    2.763016   2.744586   4.145521   2.138052   3.815849
    15  H    3.879561   3.272318   5.266967   3.584473   4.130287
    16  H    3.876400   5.263689   3.270683   3.580651   5.762534
    17  H    2.763019   4.145532   2.744590   2.138056   4.871266
    18  H    3.871858   5.259096   3.268353   3.574891   5.758674
                    6          7          8          9         10
     6  C    0.000000
     7  H    4.012759   0.000000
     8  C    4.979261   2.098835   0.000000
     9  H    1.085184   4.606168   5.861830   0.000000
    10  C    1.495724   5.059454   5.515322   2.198579   0.000000
    11  H    5.861826   2.358203   1.085185   6.664322   6.523223
    12  C    5.515342   3.507461   1.495721   6.523244   5.659816
    13  H    2.138508   5.755985   6.220999   2.550751   1.094742
    14  H    2.168032   4.871252   4.912600   3.107672   1.089072
    15  H    2.138281   5.765175   6.234126   2.544267   1.094632
    16  H    6.230234   4.129218   2.138341   7.232947   6.334134
    17  H    4.912604   3.815856   2.168036   5.972229   4.824452
    18  H    6.224975   4.127763   2.138439   7.227672   6.328307
                   11         12         13         14         15
    11  H    0.000000
    12  C    2.198570   0.000000
    13  H    7.223868   6.323778   0.000000
    14  H    5.972221   4.824480   1.768454   0.000000
    15  H    7.236669   6.338606   1.754872   1.768534   0.000000
    16  H    2.546121   1.094664   7.086970   5.473339   6.882086
    17  H    3.107682   1.089073   5.465011   3.902851   5.478805
    18  H    2.548856   1.094711   6.858950   5.470595   7.095194
                   16         17         18
    16  H    0.000000
    17  H    1.768512   0.000000
    18  H    1.754872   1.768477   0.000000
 Stoichiometry    C7H11(2)
 Framework group  C1[X(C7H11)]
 Deg. of freedom    48
 Full point group                 C1      NOp   1
 Largest Abelian subgroup         C1      NOp   1
 Largest concise Abelian subgroup C1      NOp   1
                         Standard orientation:                         
 ---------------------------------------------------------------------
 Center     Atomic      Atomic             Coordinates (Angstroms)
 Number     Number       Type             X           Y           Z
 ---------------------------------------------------------------------
      1          6           0       -0.000005   -0.221098    0.000434
      2          6           0       -1.236619   -0.914905    0.000081
      3          6           0        1.236609   -0.914900   -0.000063
      4          1           0       -0.000012    0.861375    0.001300
      5          1           0       -1.174586   -2.000978    0.000064
      6          6           0       -2.489635   -0.365197   -0.000163
      7          1           0        1.174580   -2.000973   -0.000358
      8          6           0        2.489626   -0.365198   -0.000250
      9          1           0       -3.332168   -1.049129    0.000279
     10          6           0       -2.829901    1.091309   -0.000228
     11          1           0        3.332155   -1.049136   -0.000399
     12          6           0        2.829916    1.091299   -0.000026
     13          1           0       -3.426964    1.342376    0.882348
     14          1           0       -1.951426    1.734945   -0.009900
     15          1           0       -3.443510    1.338182   -0.872441
     16          1           0        3.438575    1.339560   -0.875349
     17          1           0        1.951420    1.734970   -0.003767
     18          1           0        3.431985    1.340939    0.879510
 ---------------------------------------------------------------------
 Rotational constants (GHZ):           6.3350629           1.0958516           0.9450891
 Standard basis: 6-31+G(d,p) (6D, 7F)
 There are   188 symmetry adapted cartesian basis functions of A   symmetry.
 There are   188 symmetry adapted basis functions of A   symmetry.
   188 basis functions,   301 primitive gaussians,   188 cartesian basis functions
    27 alpha electrons       26 beta electrons
       nuclear repulsion energy       266.2195005065 Hartrees.
 NAtoms=   18 NActive=   18 NUniq=   18 SFac= 1.00D+00 NAtFMM=   60 NAOKFM=F Big=F
 Integral buffers will be    131072 words long.
 Raffenetti 2 integral format.
 Two-electron integral symmetry is turned on.
 ------------------------------------------------------------------------------
 Polarizable Continuum Model (PCM)
 =================================
 Model                : PCM.
 Atomic radii         : SMD-Coulomb.
 Polarization charges : Total charges.
 Charge compensation  : None.
 Solution method      : On-the-fly selection.
 Cavity type          : VdW (van der Waals Surface) (Alpha=1.000).
 Cavity algorithm     : GePol (No added spheres)
                        Default sphere list used, NSphG=   18.
                        Lebedev-Laikov grids with approx.  5.0 points / Ang**2.
                        Smoothing algorithm: York/Karplus (Gamma=1.0000).
                        Polarization charges: spherical gaussians, with
                                              point-specific exponents (IZeta= 3).
                        Self-potential: point-specific (ISelfS= 7).
                        Self-field    : sphere-specific E.n sum rule (ISelfD= 2).
 1st derivatives      : Analytical E(r).r(x)/FMM algorithm (CHGder, D1EAlg=3).
                        Cavity 1st derivative terms included.
 Solvent              : Ethanol, Eps=  24.852000 Eps(inf)=   1.852593
 ------------------------------------------------------------------------------
 Spheres list:
 ISph  on   Nord     Re0    Alpha      Xe            Ye            Ze
    1   C      1    1.8500  1.000     -0.000005     -0.221098      0.000434
    2   C      2    1.8500  1.000     -1.236619     -0.914905      0.000081
    3   C      3    1.8500  1.000      1.236609     -0.914900     -0.000063
    4   H      4    1.2000  1.000     -0.000012      0.861375      0.001300
    5   H      5    1.2000  1.000     -1.174586     -2.000978      0.000064
    6   C      6    1.8500  1.000     -2.489635     -0.365197     -0.000163
    7   H      7    1.2000  1.000      1.174580     -2.000973     -0.000358
    8   C      8    1.8500  1.000      2.489626     -0.365198     -0.000250
    9   H      9    1.2000  1.000     -3.332168     -1.049129      0.000279
   10   C     10    1.8500  1.000     -2.829901      1.091309     -0.000228
   11   H     11    1.2000  1.000      3.332155     -1.049136     -0.000399
   12   C     12    1.8500  1.000      2.829916      1.091299     -0.000026
   13   H     13    1.2000  1.000     -3.426964      1.342376      0.882348
   14   H     14    1.2000  1.000     -1.951426      1.734945     -0.009900
   15   H     15    1.2000  1.000     -3.443510      1.338182     -0.872441
   16   H     16    1.2000  1.000      3.438575      1.339560     -0.875349
   17   H     17    1.2000  1.000      1.951420      1.734970     -0.003767
   18   H     18    1.2000  1.000      3.431985      1.340939      0.879510
 ------------------------------------------------------------------------------
 ------------------------------------------------------------------------------
 Atomic radii for non-electrostatic terms: SMD-CDS.
 ------------------------------------------------------------------------------
 Nuclear repulsion after PCM non-electrostatic terms =      266.2185265324 Hartrees.
 One-electron integrals computed using PRISM.
 NBasis=   188 RedAO= T EigKep=  5.17D-06  NBF=   188
 NBsUse=   188 1.00D-06 EigRej= -1.00D+00 NBFU=   188
 Initial guess from the checkpoint file:  "bisaliloRW.chk"
 B after Tr=     0.000000    0.000000    0.000000
         Rot=    1.000000   -0.000004   -0.000001   -0.000004 Ang=  -0.00 deg.
 Initial guess <Sx>= 0.0000 <Sy>= 0.0000 <Sz>= 0.5000 <S**2>= 0.8133 S= 0.5312
 Requested convergence on RMS density matrix=1.00D-08 within  32 cycles.
 Requested convergence on MAX density matrix=1.00D-06.
 Requested convergence on             energy=1.00D-06.
 No special actions if energy rises.
 Inv3:  Mode=1 IEnd=     5947392.
 Iteration    1 A*A^-1 deviation from unit magnitude is 3.66D-15 for   1403.
 Iteration    1 A*A^-1 deviation from orthogonality  is 2.67D-15 for    957     85.
 Iteration    1 A^-1*A deviation from unit magnitude is 3.66D-15 for   1403.
 Iteration    1 A^-1*A deviation from orthogonality  is 1.73D-14 for   1169   1141.
 Error on total polarization charges =  0.05328
 SCF Done:  E(UM052X) =  -273.286686525     A.U. after    9 cycles
            NFock=  9  Conv=0.86D-08     -V/T= 2.0099
 <Sx>= 0.0000 <Sy>= 0.0000 <Sz>= 0.5000 <S**2>= 0.8134 S= 0.5312
 <L.S>= 0.000000000000E+00
 SMD-CDS (non-electrostatic) energy       (kcal/mol) =      -0.61
 (included in total energy above)
 Annihilation of the first spin contaminant:
 S**2 before annihilation     0.8134,   after     0.7520
 QCSCF skips out because SCF is already converged.
 D1PCM: PCM CHGder 1st derivatives, ID1Alg=3 FixD1E=F DoIter=F DoCFld=F I1PDM=0.
 Calling FoFJK, ICntrl=      2127 FMM=F ISym2X=0 I1Cent= 0 IOpClX= 1 NMat=1 NMatS=1 NMatT=0.
 ***** Axes restored to original set *****
 -------------------------------------------------------------------
 Center     Atomic                   Forces (Hartrees/Bohr)
 Number     Number              X              Y              Z
 -------------------------------------------------------------------
      1        6          -0.000002530   -0.000148303    0.000000816
      2        6           0.000008497    0.000078131   -0.000002480
      3        6          -0.000007834    0.000076439   -0.000001046
      4        1           0.000000050    0.000089051   -0.000003269
      5        1          -0.000034464   -0.000016662   -0.000000061
      6        6           0.000119306    0.000063744    0.000001561
      7        1           0.000034012   -0.000016524    0.000000248
      8        6          -0.000117305    0.000062971    0.000000963
      9        1           0.000001463    0.000007475    0.000002805
     10        6          -0.000034197   -0.000133049    0.000002398
     11        1          -0.000001718    0.000007447    0.000002141
     12        6           0.000033714   -0.000130711    0.000003140
     13        1           0.000004710   -0.000002774   -0.000000795
     14        1           0.000043877    0.000034444    0.000001640
     15        1           0.000007774   -0.000001276   -0.000005154
     16        1          -0.000006778   -0.000001789   -0.000003491
     17        1          -0.000042892    0.000033564    0.000000123
     18        1          -0.000005683   -0.000002178    0.000000461
 -------------------------------------------------------------------
 Cartesian Forces:  Max     0.000148303 RMS     0.000048014

 GradGradGradGradGradGradGradGradGradGradGradGradGradGradGradGradGradGrad
 Berny optimization.
 Using GEDIIS/GDIIS optimizer.
 FormGI is forming the generalized inverse of G from B-inverse, IUseBI=4.
 Internal  Forces:  Max     0.000143532 RMS     0.000042262
 Search for a local minimum.
 Step number   2 out of a maximum of   82
 All quantities printed in internal units (Hartrees-Bohrs-Radians)
 Mixed Optimization -- En-DIIS/RFO-DIIS
 Swapping is turned off.
 Update second derivatives using D2CorX and points    1    2
 DE= -3.68D-06 DEPred=-3.88D-06 R= 9.48D-01
 TightC=F SS=  1.41D+00  RLast= 5.82D-03 DXNew= 5.0454D-01 1.7454D-02
 Trust test= 9.48D-01 RLast= 5.82D-03 DXMaxT set to 3.00D-01
 ITU=  1  0
     Eigenvalues ---    0.00825   0.00826   0.01509   0.01509   0.01853
     Eigenvalues ---    0.01854   0.01854   0.02185   0.02185   0.02510
     Eigenvalues ---    0.02510   0.07005   0.07005   0.07427   0.07428
     Eigenvalues ---    0.15108   0.16000   0.16000   0.16000   0.16000
     Eigenvalues ---    0.16000   0.16000   0.16000   0.16000   0.16000
     Eigenvalues ---    0.16118   0.20936   0.22000   0.22000   0.22000
     Eigenvalues ---    0.23535   0.32860   0.32877   0.34026   0.34326
     Eigenvalues ---    0.34331   0.34336   0.34892   0.34944   0.35096
     Eigenvalues ---    0.35103   0.35389   0.35424   0.36483   0.42798
     Eigenvalues ---    0.44189   0.51337   0.53801
 En-DIIS/RFO-DIIS/Sim-DIIS IScMMF=       -3 using points:     2    1
 RFO step:  Lambda=-3.39766613D-07.
 DidBck=F Rises=F RFO-DIIS coefs:    1.01580   -0.01580
 Iteration  1 RMS(Cart)=  0.00066509 RMS(Int)=  0.00000007
 Iteration  2 RMS(Cart)=  0.00000012 RMS(Int)=  0.00000000
 Variable       Old X    -DE/DX   Delta X   Delta X   Delta X     New X
                                 (Linear)    (Quad)   (Total)
    R1        2.67954  -0.00012   0.00001  -0.00025  -0.00024   2.67929
    R2        2.67953  -0.00011   0.00001  -0.00024  -0.00024   2.67929
    R3        2.04558   0.00009  -0.00000   0.00023   0.00023   2.04581
    R4        2.05573   0.00001   0.00001   0.00005   0.00006   2.05579
    R5        2.58570  -0.00014   0.00000  -0.00026  -0.00025   2.58545
    R6        2.05573   0.00001   0.00001   0.00005   0.00006   2.05579
    R7        2.58570  -0.00014   0.00000  -0.00025  -0.00025   2.58545
    R8        2.05070  -0.00001   0.00001   0.00000   0.00002   2.05072
    R9        2.82651  -0.00011   0.00001  -0.00029  -0.00028   2.82623
   R10        2.05070  -0.00001   0.00001   0.00000   0.00002   2.05072
   R11        2.82650  -0.00010   0.00001  -0.00028  -0.00028   2.82623
   R12        2.06876  -0.00000   0.00001   0.00001   0.00003   2.06879
   R13        2.05805   0.00006   0.00001   0.00016   0.00017   2.05821
   R14        2.06855  -0.00000   0.00001   0.00002   0.00003   2.06859
   R15        2.06862  -0.00000   0.00001   0.00002   0.00003   2.06865
   R16        2.05805   0.00005   0.00001   0.00016   0.00016   2.05821
   R17        2.06870  -0.00000   0.00001   0.00001   0.00003   2.06873
    A1        2.11902   0.00004   0.00001   0.00021   0.00022   2.11923
    A2        2.08208  -0.00002  -0.00001  -0.00010  -0.00011   2.08197
    A3        2.08209  -0.00002  -0.00001  -0.00010  -0.00011   2.08198
    A4        2.02503   0.00007  -0.00000   0.00037   0.00037   2.02540
    A5        2.21688  -0.00008   0.00003  -0.00028  -0.00025   2.21662
    A6        2.04127   0.00000  -0.00002  -0.00009  -0.00011   2.04116
    A7        2.02503   0.00007  -0.00000   0.00037   0.00036   2.02539
    A8        2.21689  -0.00007   0.00003  -0.00028  -0.00025   2.21663
    A9        2.04127   0.00000  -0.00002  -0.00009  -0.00011   2.04116
   A10        2.04630   0.00000  -0.00001   0.00001  -0.00001   2.04629
   A11        2.21372   0.00000   0.00003   0.00005   0.00008   2.21381
   A12        2.02316  -0.00001  -0.00002  -0.00006  -0.00008   2.02309
   A13        2.04630   0.00000  -0.00001   0.00000  -0.00001   2.04629
   A14        2.21373   0.00000   0.00003   0.00005   0.00008   2.21382
   A15        2.02315  -0.00001  -0.00002  -0.00006  -0.00007   2.02308
   A16        1.92555  -0.00000   0.00000  -0.00001  -0.00001   1.92554
   A17        1.97360   0.00000   0.00002   0.00004   0.00006   1.97366
   A18        1.92535  -0.00000   0.00000  -0.00001  -0.00001   1.92535
   A19        1.88762  -0.00000  -0.00001  -0.00004  -0.00005   1.88757
[...]
 7,-0.3234878,0.0688732,-0.0446551,0.0000344,0.0177956,-0.1508672,-0.00
 00863,-0.0000234,-0.0000648,0.207002,0.3042584,0.0688281,0.0000387,0.5
 605067,0.2951237,0.0003011,0.001942,0.0003648,-0.323482,-0.0852237,-0.
 0771587,0.0000451,-0.1108755,-0.0554424,0.0003017,-0.0000691,0.0001436
 ,0.1943417,-0.2220683,0.097077,-0.0004125,0.1123365,-0.1309341,-0.0003
 629,0.0066189,-0.0025157,0.1350629,-0.0852212,0.0771596,0.0000389,0.11
 088,-0.0554478,0.0000655,0.0001302,0.0000145,0.1943367,-0.2221747,-0.0
 971057,0.0002112,-0.1123464,-0.1309207,-0.0001913,-0.0027305,-0.001074
 3,0.1350622,0.0551743,0.0359238,0.1146332,0.1937951,0.0258891,-0.01941
 15,0.1465081,-0.0638259,-0.0444866,-0.0498311,-0.1525828,0.0022743,-0.
 0368541,-0.0162086,0.0007763,0.0003302,0.0017265,0.1100754,0.0502991,0
 .0364916,-0.1165777,0.1907864,0.0270095,0.0181099,-0.1499227,0.0633281
 ,-0.0406667,0.0517766,-0.0363306,0.1160035,-0.1916924,0.026671,0.01851
 94,0.1489004,0.0634834,-0.0418155,-0.0498252,0.1526103,-0.0008948,0.03
 68666,-0.0162207,0.0002939,-0.0001027,0.0006694,0.1100865,0.0537414,-0
 .0360767,-0.115236,-0.1929078,0.0262384,-0.0189845,-0.147569,-0.063658
 3,-0.0433554\Polar=233.7248491,-0.0010554,104.6152283,-0.0139961,0.024
 7278,80.8498713\Quadrupole=4.0139525,0.9689093,-4.9828618,-0.0000221,-
 0.0029954,0.0013578\PG=C01 [X(C7H11)]\NImag=0\\0.57436038,-0.00000035,
 0.69412841,0.00000769,0.00034179,0.11527857,-0.15463962,-0.07861147,-0
 .00005710,0.63469672,-0.10477815,-0.17964604,-0.00004655,-0.05643644,0
 .69784021,-0.00000393,-0.00002284,-0.05470198,0.00000523,0.00001364,0.
 12538103,-0.15463765,0.07861094,0.00002952,-0.12364148,0.00375284,-0.0
 0000870,0.63470166,0.10477745,-0.17964837,-0.00005708,-0.00375039,0.01
 581906,0.00000464,0.05643653,0.69783448,0.00003788,-0.00004533,-0.0547
 0172,0.00000556,0.00000401,0.00569688,-0.00005559,0.00012268,0.1253808
 8,-0.06099735,-0.00000079,0.00001307,0.00627058,-0.02772542,-0.0000133
 4,0.00627091,0.02772489,0.00001382,0.06096698,-0.00000119,-0.35320250,
 -0.00024061,-0.00047107,-0.01134186,-0.00000498,0.00047088,-0.01134165
 ,-0.00000752,0.00000119,0.37595253,-0.00000960,-0.00023254,-0.03394633
 ,0.00001895,-0.00000081,0.00432189,-0.00000359,-0.00000450,0.00432168,
 0.00003732,0.00021936,0.01898466,0.00327255,-0.02797393,-0.00000409,-0
 .05949414,0.01347921,0.00000279,0.00064791,-0.00183870,-0.00000025,-0.
 00414725,-0.00183705,-0.00000055,0.06330717,0.00164588,-0.01528316,-0.
 00000313,0.01405615,-0.33905183,0.00000233,0.00202951,0.00110467,-0.00
 000139,-0.00231887,-0.00005978,0.00000381,-0.01600683,0.36055116,-0.00
 003582,-0.00002022,0.00356098,0.00004593,0.00000039,-0.04060138,0.0000
 1440,-0.00000119,-0.00301469,-0.00000633,0.00000034,0.00511441,0.00000
 694,0.00000046,0.02761177,-0.10694301,-0.00716111,-0.00000914,-0.32175
 101,0.14754477,-0.00000329,0.04394993,-0.00948135,-0.00000623,0.000477
 42,0.00151155,-0.00001125,-0.00041201,-0.00016843,-0.00002553,0.737237
 36,0.01742270,0.02480062,-0.00000225,0.08671290,-0.17933296,0.00001593
 ,-0.02133194,-0.00236467,0.00000655,0.00044322,-0.00076808,0.00000322,
 0.03184139,-0.01075997,0.00001320,-0.01920137,0.61192917,-0.00004883,-
 0.00000597,0.00695191,0.00005216,0.00003890,-0.05302436,0.00002729,-0.
 00001340,0.00378355,0.00000099,0.00000025,-0.00234104,0.00000211,-0.00
 000184,0.00371219,-0.00011103,-0.00006902,0.13807611,0.00327289,0.0279
 7378,0.00000882,0.00064789,0.00183872,-0.00000040,-0.05949445,-0.01348
 405,-0.00000309,-0.00414711,0.00183705,0.00000093,-0.00039318,-0.00067
 599,0.00000087,0.00047916,-0.00013986,0.00000016,0.06330811,-0.0016461
 0,-0.01528371,-0.00000579,-0.00202952,0.00110472,0.00000005,-0.0140610
 7,-0.33905107,-0.00006427,0.00231880,-0.00005980,0.00000186,0.00067599
 ,0.00067099,0.00000114,0.00019624,0.00058776,0.00000117,0.01601207,0.3
 6055031,0.00002084,-0.00001503,0.00356099,-0.00000998,-0.00000201,-0.0
 0301468,-0.00002485,-0.00006468,-0.04060149,0.00000453,-0.00000324,0.0
 0511444,0.00000024,0.00000138,0.00013392,0.00000199,-0.00000277,-0.000
 12472,-0.00000495,0.00007312,0.02761184,-0.10694229,0.00716301,0.00002
 811,0.04395035,0.00948040,0.00000949,-0.32175721,-0.14754135,0.0000138
 3,0.00047739,-0.00151159,0.00000287,0.00047917,-0.00019622,-0.00000545
 ,-0.02292092,0.00762616,-0.00001656,-0.00041297,0.00016814,0.00001278,
 0.73723852,-0.01741934,0.02480036,0.00000826,0.02133044,-0.00236525,0.
 00000234,-0.08671012,-0.17932759,-0.00000631,-0.00044308,-0.00076797,0
 .00000109,0.00013985,0.00058777,-0.00000313,-0.00762525,0.00609850,0.0
 0000423,-0.03184173,-0.01075949,0.00000735,0.01920214,0.61192985,0.000
 02718,-0.00000053,0.00695168,-0.00001001,-0.00000624,0.00378351,0.0000
 0923,0.00001319,-0.05302392,-0.00000131,0.00000193,-0.00234105,-0.0000
 0005,0.00000032,-0.00012474,0.00000831,0.00000139,0.00053981,-0.000006
 92,-0.00000402,0.00371214,-0.00004736,0.00005430,0.13807664,-0.0013828
 3,0.00432270,0.00000199,-0.02216482,-0.01983128,0.00000570,-0.00140141
 ,-0.00124134,-0.00000137,0.00011322,-0.00021015,0.00000078,0.00100465,
 -0.00000230,-0.00000022,-0.23162726,-0.14110126,0.00009220,0.00000691,
 0.00009169,0.00000005,-0.00002978,0.00064795,0.00000054,0.24621158,0.0
 0412970,-0.00010413,0.00000433,0.01083646,0.01007645,-0.00000158,-0.00
 088146,0.00052710,0.00000046,0.00024743,0.00007538,0.00000093,0.000103
 47,0.00120804,-0.00000253,-0.14431525,-0.17544850,0.00006324,-0.000030
 54,-0.00003669,-0.00000003,0.00069446,0.00012219,-0.00000040,0.1502776
 4,0.18297761,0.00000670,0.00000292,0.00813550,-0.00002654,-0.00000334,
 0.00679063,-0.00000892,0.00000090,0.00006063,0.00000090,0.00000097,-0.
 00041962,0.00000011,0.00000079,-0.00612381,0.00010533,0.00003746,-0.03
 528529,-0.00000012,0.00000002,0.00012542,0.00000390,0.00000209,-0.0005
 0284,-0.00008245,-0.00009877,0.02145073,0.00484523,0.00086537,-0.00000
 005,-0.00429403,0.03009777,0.00005466,-0.00199750,-0.00013582,-0.00000
 679,-0.00083553,0.00024664,-0.00001286,-0.00357836,0.00149151,0.000011
 07,-0.09625254,0.02390851,-0.00001574,-0.00003937,-0.00008791,0.000004
 07,0.00078157,0.00079397,-0.00000092,0.00851148,-0.02365674,-0.0000632
 6,0.58569724,-0.00667463,0.00005887,0.00000055,0.01557090,-0.00907121,
 0.00000352,0.00252423,-0.00086721,-0.00000356,0.00010028,-0.00019195,-
 0.00001042,-0.00006244,0.00186440,0.00000671,0.02440009,-0.23771965,-0
 .00000633,0.00013035,-0.00007111,0.00000225,-0.00147754,-0.00049811,0.
 00000002,0.00637711,-0.01628812,0.00001293,0.03794799,0.52574365,-0.00
 007004,-0.00002143,-0.00438469,0.00006026,-0.00001843,0.00663397,0.000
 03383,0.00002014,0.00007253,-0.00000351,0.00001790,-0.00009868,-0.0000
 0718,0.00000380,0.00990795,-0.00002637,0.00023862,-0.06786301,-0.00000
 333,-0.00000111,0.00022316,-0.00000788,-0.00001909,-0.00011328,-0.0000
 2942,0.00007261,0.00309237,0.00008675,-0.00035430,0.54140134,-0.001382
 92,-0.00432266,-0.00000088,-0.00140137,0.00124137,0.00000092,-0.022164
 85,0.01983201,0.00000652,0.00011324,0.00021016,-0.00000055,0.00000691,
 -0.00009169,0.00000001,-0.00002982,-0.00064795,-0.00000108,0.00100461,
 0.00000232,-0.00000096,-0.23161916,0.14110227,0.00002281,-0.00016586,0
 .00004153,-0.00000019,-0.00008016,0.00001752,0.00000181,0.24620313,-0.
 00412966,-0.00010392,0.00000078,0.00088151,0.00052705,0.00000037,-0.01
 083579,0.01007615,0.00000210,-0.00024750,0.00007536,0.00000046,0.00003
 054,-0.00003668,-0.00000018,-0.00069446,0.00012223,-0.00000043,-0.0001
 0354,0.00120808,0.00000054,0.14431622,-0.17545562,-0.00002319,-0.00004
 153,0.00002460,0.00000007,0.00001554,-0.00005142,-0.00000031,-0.150278
 84,0.18298565,-0.00000321,0.00000061,0.00813554,0.00000538,0.00000009,
 0.00006061,0.00001321,-0.00000523,0.00679057,-0.00000047,0.00000061,-0
 .00041961,0.00000006,0.00000011,0.00012541,-0.00000233,0.00000110,-0.0
 0050283,-0.00000104,0.00000225,-0.00612384,0.00001823,-0.00003370,-0.0
 3528579,0.00000026,-0.00000003,0.00001508,0.00000045,-0.00000018,0.000
 01295,-0.00003321,0.00001308,0.02145114,0.00484642,-0.00086537,-0.0000
 0203,-0.00199786,0.00013601,0.00000361,-0.00429569,-0.03009779,-0.0000
 2697,-0.00083438,-0.00024616,0.00000584,-0.00003935,0.00008789,-0.0000
 0146,0.00078163,-0.00079420,-0.00000226,-0.00357827,-0.00149133,-0.000
 00280,-0.09625416,-0.02391151,0.00000658,-0.00008018,-0.00001554,-0.00
 000043,-0.00023729,0.00003958,0.00000530,0.00851227,0.02365675,0.00003
 025,0.58568313,0.00667393,0.00005913,-0.00000062,-0.00252375,-0.000867
 16,-0.00000178,-0.01557003,-0.00906949,0.00000117,-0.00009974,-0.00019
 187,-0.00000499,-0.00013036,-0.00007112,0.00000108,0.00147731,-0.00049
 809,0.00000055,0.00006257,0.00186444,0.00000158,-0.02440557,-0.2377202
 6,-0.00002818,-0.00001753,-0.00005142,-0.00000030,-0.00003957,0.000091
 27,0.00000063,-0.00637777,-0.01628924,0.00000320,-0.03796123,0.5257639
 5,0.00003024,-0.00000880,-0.00438427,-0.00001429,0.00000765,0.00007251
 ,-0.00002896,-0.00000569,0.00663446,0.00000179,0.00000768,-0.00009844,
 0.00000136,-0.00000044,0.00022322,0.00000380,-0.00000744,-0.00011331,0
 .00000489,-0.00000045,0.00990815,0.00001215,0.00007686,-0.06786338,-0.
 00000079,-0.00000011,0.00001295,-0.00000246,0.00000022,0.00002818,0.00
 001025,0.00002291,0.00309166,-0.00004239,-0.00014221,0.54141485,-0.000
 53508,-0.00026764,0.00020035,0.00188094,0.00116612,0.00029092,0.000241
 90,0.00015693,0.00005190,0.00035265,0.00011881,0.00005559,-0.00033398,
 0.00022408,-0.00049337,-0.00661967,0.00512709,0.00471338,-0.00006195,0
 .00001003,-0.00005926,-0.00008070,-0.00005264,0.00000619,0.00028162,0.
 00023080,-0.00035552,-0.12559460,0.02773315,0.12089810,-0.00000907,-0.
 00000646,0.00000248,0.00000241,-0.00000716,0.00000236,0.13326143,0.000
 14747,-0.00004361,-0.00069565,-0.00233111,-0.00354660,-0.00008246,0.00
 005896,0.00054940,0.00000110,0.00014556,0.00017619,0.00003850,0.000683
 58,-0.00046215,0.00195549,0.02130438,-0.00910071,-0.02609531,-0.000026
 39,-0.00002655,0.00001180,0.00019018,-0.00038549,-0.00001601,-0.000771
 11,0.00100239,0.00113295,0.03014516,-0.05901311,-0.05014967,0.00005985
 ,0.00000697,0.00000352,0.00014020,-0.00000018,0.00000162,-0.03665464,0
 .06458469,0.00044703,0.00016036,-0.00013938,-0.00154413,0.00014463,-0.
 00050709,-0.00019726,0.00009948,-0.00002488,0.00000852,-0.00004083,0.0
 0007576,0.00007637,0.00003307,-0.00022239,-0.00142401,-0.00042761,0.00
 383298,-0.00000625,-0.00000880,-0.00001217,0.00011437,-0.00002473,0.00
 001634,0.00007638,-0.00049269,0.00039435,0.12071049,-0.04780149,-0.221
 97707,0.00000891,0.00000301,0.00000330,0.00002046,-0.00000146,-0.00000
 705,-0.13157963,0.05234334,0.23953132,-0.00072882,0.00027401,-0.000026
 82,-0.00054050,-0.00066373,-0.00001167,0.00004261,0.00015418,0.0000047
 1,-0.00257197,0.00185872,-0.00006356,0.00018276,-0.00028875,0.00000775
 ,0.01040584,0.00487753,-0.00011495,-0.00003764,-0.00000928,-0.00000263
 ,0.00009068,-0.00009130,0.,0.00040504,0.00210441,0.00002538,-0.2367236
 0,-0.13467864,0.00195251,0.00002819,0.00000805,0.,0.00003606,0.0000283
 6,0.00000051,-0.01325906,-0.00875661,-0.00108387,0.25621193,-0.0000453
 4,-0.00018440,0.00001524,-0.00045730,0.00172471,-0.00001814,0.00036985
 ,0.00065861,-0.00000288,0.00138079,0.00054979,0.00001360,-0.00002158,0
 .00020140,-0.00001254,-0.02920460,-0.01768783,0.00024317,-0.00016468,0
 .00005687,0.00000041,-0.00000460,-0.00013416,-0.00000006,0.00238271,-0
 .00513936,0.00001954,-0.13170296,-0.14534434,0.00143936,-0.00000944,-0
 .00000696,0.00000028,0.00002708,-0.00002882,0.,0.00668349,0.00459715,0
 .00127330,0.14417628,0.15614260,0.00000424,0.00000438,0.00004432,-0.00
 000234,0.00001282,-0.00029165,-0.00000155,-0.00001375,-0.00004547,-0.0
 0007842,0.00001153,0.00075141,-0.00000222,-0.00000115,-0.00002141,-0.0
 0003528,-0.00008702,-0.00144390,0.00000272,-0.00000150,-0.00004013,-0.
 00000287,0.00000310,0.00003323,0.00000161,-0.00002532,0.00183300,0.001
 94706,0.00151312,-0.04869429,0.00000008,0.00000007,0.00000531,-0.00000
 100,0.00000049,-0.00000791,0.02122410,0.01628685,0.00122593,-0.0020978
 3,-0.00155805,0.04496373,-0.00057134,-0.00027356,-0.00020173,0.0019308
 2,0.00116636,-0.00033089,0.00026275,0.00015771,-0.00005482,0.00035647,
 0.00012905,-0.00004365,-0.00034000,0.00022538,0.00047990,-0.00669539,0
 .00505875,-0.00457815,-0.00006333,0.00001065,0.00005854,-0.00008950,-0
 .00005425,-0.00000483,0.00030788,0.00022852,0.00039516,-0.13024307,0.0
 2806618,-0.12288997,-0.00000938,-0.00000671,-0.00000228,0.00000204,-0.
 00000707,-0.00000255,0.01047528,-0.00430613,0.01437922,-0.01358319,0.0
 0658963,-0.02095854,0.13826210,0.00010753,-0.00005993,0.00068063,-0.00
 227749,-0.00362181,0.00008832,0.00007104,0.00054438,0.00000019,0.00014
 161,0.00018528,-0.00003728,0.00069900,-0.00046957,-0.00193913,0.021787
 38,-0.00895729,0.02584628,-0.00002674,-0.00002449,-0.00001232,0.000184
 21,-0.00038091,0.00001460,-0.00077374,0.00104763,-0.00110809,0.0304159
 7,-0.05861265,0.04876339,0.00005915,0.00000681,-0.00000370,0.00013824,
 -0.00000028,0.00000136,-0.00447618,0.00143160,-0.00529339,-0.00902347,
 0.00452560,-0.01614319,-0.03699764,0.06415906,-0.00038126,-0.00014540,
 -0.00013328,0.00145700,-0.00013769,-0.00050581,0.00016419,-0.00010353,
 -0.00002372,-0.00001694,0.00003406,0.00007564,-0.00007379,-0.00003736,
 -0.00021579,0.00153907,0.00027446,0.00373572,0.00000808,0.00000864,-0.
 00001335,-0.00010152,0.00003251,0.00001660,-0.00006535,0.00047967,0.00
 040896,-0.12271314,0.04663695,-0.21821915,-0.00000928,-0.00000256,0.00
 000333,-0.00002146,0.00000093,-0.00000733,-0.01496122,0.00526826,-0.02
 218948,0.00141048,-0.00141297,0.00167917,0.13375836,-0.05086092,0.2353
 8880,-0.00056107,0.00027196,0.00020142,0.00025668,-0.00015751,0.000053
 88,0.00191674,-0.00116639,0.00031882,0.00035567,-0.00012612,0.00004678
 ,-0.00006294,-0.00001049,-0.00005880,-0.00008693,0.00005371,0.00000536
 ,-0.00033832,-0.00022491,-0.00048388,-0.00667464,-0.00508055,0.0046190
 5,-0.00000928,0.00000664,0.00000237,0.00000219,0.00000718,0.00000226,0
 .00030019,-0.00022899,-0.00038388,-0.12882674,-0.02797884,0.12230655,-
 0.00000416,-0.00000298,-0.00000110,0.00000664,-0.00000901,0.00000505,-
 0.00000475,-0.00000147,0.00000004,0.13673930,-0.00011946,-0.00005527,0
 .00068510,-0.00006731,0.00054594,0.00000039,0.00229379,-0.00359999,0.0
 0008557,-0.00014287,0.00018269,-0.00003746,0.00002663,-0.00002509,-0.0
 0001215,-0.00018616,-0.00038219,0.00001278,-0.00069477,-0.00046688,-0.
 00194391,-0.02164357,-0.00900266,0.02592107,-0.00005936,0.00000685,-0.
 00000371,-0.00013880,-0.00000034,0.00000341,0.00077289,0.00103478,-0.0
 0111531,-0.03034719,-0.05874017,0.04918885,0.00000343,0.00010662,0.000
 01796,0.00002438,0.00002038,-0.00000070,0.00000133,0.00010064,-0.00001
 481,0.03690979,0.06429393,0.00040055,-0.00014976,-0.00013513,-0.000173
 99,-0.00010217,-0.00002419,-0.00148238,-0.00014003,-0.00050626,0.00001
 442,0.00003604,0.00007572,-0.00000751,0.00000868,-0.00001299,0.0001053
 0,0.00003014,0.00001694,0.00007443,-0.00003611,-0.00021802,-0.00150774
 ,0.00031757,0.00376807,0.00000916,-0.00000269,0.00000332,0.00002114,0.
 00000110,-0.00000771,0.00006865,0.00048359,0.00040493,0.12212651,0.046
 99776,-0.21934439,-0.00000133,-0.00001849,-0.00000333,-0.00000542,-0.0
 0000159,-0.00000098,0.00000001,-0.00001459,0.00000413,-0.13311904,-0.0
 5131677,0.23662958,-0.00072956,-0.00027421,0.00001159,0.00004257,-0.00
 015386,-0.00000210,-0.00054015,0.00066377,0.00000516,-0.00257482,-0.00
 185902,0.00002895,-0.00003754,0.00000936,0.00000107,0.00009064,0.00009
 137,0.00000062,0.00018274,0.00028884,-0.00000326,0.01040754,-0.0048796
 4,0.00004550,0.00002822,-0.00000806,-0.00000002,0.00003609,-0.00002838
 ,-0.00000050,0.00040481,-0.00210483,-0.00001096,-0.23675592,0.13469207
 ,-0.00076832,0.00000677,-0.00002464,-0.00000546,0.00002809,0.00001859,
 -0.00000016,0.00000683,-0.00002418,0.00000541,-0.01348687,0.00894444,-
 0.00130995,0.25624814,0.00004514,-0.00018408,0.00000621,-0.00036989,0.
 00065871,-0.00000106,0.00045711,0.00172467,-0.00000733,-0.00138106,0.0
 0054946,0.00000687,0.00016471,0.00005688,0.00000028,0.00000459,-0.0001
 3415,-0.00000041,0.00002155,0.00020142,-0.00000528,0.02920516,-0.01768
 806,0.00009434,0.00000944,-0.00000697,0.00000006,-0.00002706,-0.000028
 82,0.00000079,-0.00238296,-0.00513936,0.00000741,0.13171546,-0.1453748
 3,0.00056469,0.00000891,0.00002045,0.00000142,-0.00001858,0.00002842,-
 0.00000067,0.00000902,0.00002027,-0.00000167,-0.00662004,0.00454930,-0
 .00137099,-0.14418923,0.15617301,-0.00000184,0.00000174,0.00004481,0.0
 0000042,-0.00000573,-0.00004550,0.00000118,0.00000564,-0.00029183,0.00
 003598,0.00000539,0.00075337,-0.00000114,-0.00000068,-0.00004013,0.000
 00127,0.00000115,0.00003324,0.00000091,-0.00000054,-0.00002142,0.00001
 764,-0.00003832,-0.00144424,-0.00000006,0.00000005,0.00000531,0.000000
 27,0.00000020,-0.00000792,-0.00000083,-0.00001153,0.00183343,-0.000767
 04,0.00059559,-0.04869101,0.00000483,-0.00000050,-0.00000121,-0.000000
 03,-0.00000016,0.00001092,-0.00000487,-0.00000020,-0.00000106,0.021038
 12,-0.01618753,0.00154222,0.00082130,-0.00061028,0.04495631,-0.0005459
 1,0.00026932,-0.00020075,0.00024827,-0.00015718,-0.00005287,0.00189597
 ,-0.00116631,-0.00030309,0.00035389,-0.00012170,-0.00005241,-0.0000623
 6,-0.00001019,0.00005901,-0.00008339,0.00005325,-0.00000566,-0.0003357
 3,-0.00022462,0.00048956,-0.00664388,-0.00510721,-0.00467401,-0.000009
 16,0.00000654,-0.00000239,0.00000226,0.00000704,-0.00000264,0.00028925
 ,-0.00023031,0.00036708,-0.12696411,-0.02781563,-0.12151414,-0.0000047
 2,-0.00000175,-0.00000007,0.00000694,-0.00000892,-0.00000465,-0.000004
 22,-0.00000321,0.00000132,0.01047828,0.00442281,0.01478718,-0.01335758
 ,-0.00665228,-0.02114611,0.13473621,-0.00013559,-0.00004824,-0.0006912
 0,-0.00006263,0.00054789,0.00000130,0.00231475,-0.00356850,-0.00008524
 ,-0.00014445,0.00017876,0.00003828,0.00002651,-0.00002595,0.00001197,-
 0.00018832,-0.00038419,-0.00001784,-0.00068779,-0.00046480,0.00195084,
 -0.02144963,-0.00905312,-0.02602254,-0.00005965,0.00000693,0.00000351,
 -0.00013956,-0.00000013,0.00000367,0.00077223,0.00101552,0.00112586,-0
 .03021090,-0.05887586,-0.04970668,0.00000189,0.00010293,0.00001444,0.0
 0002440,0.00002035,-0.00000100,0.00000276,0.00010569,-0.00001857,0.004
 35801,0.00143146,0.00527830,0.00883761,0.00457368,0.01624570,0.0367403
 6,0.06443758,-0.00042782,0.00015605,-0.00013752,0.00018751,0.00010083,
 -0.00002441,0.00151895,0.00014238,-0.00050719,-0.00001101,-0.00003890,
 0.00007578,0.00000681,-0.00000877,-0.00001255,-0.00011062,-0.00002710,
 0.00001601,-0.00007573,0.00003435,-0.00022024,0.00145601,-0.00038442,0
 .00380120,-0.00000902,0.00000288,0.00000331,-0.00002077,-0.00000129,-0
 .00000667,-0.00007299,-0.00048879,0.00039881,-0.12133070,-0.04742345,-
 0.22086889,0.00000012,0.00001467,0.00000406,0.00000544,0.00000150,-0.0
 0000129,0.00000109,0.00001804,-0.00000338,-0.01455300,-0.00528279,-0.0
 2219189,0.00118112,0.00131563,0.00136470,0.13225462,0.05186918,0.23831
 013\\0.00000042,0.00001343,-0.00000108,-0.00002394,0.00001792,0.000003
 37,0.00002325,0.00001784,0.00000096,-0.00000004,0.00000339,0.00000195,
 0.00000479,-0.00000842,0.00000009,0.00001403,-0.00002270,-0.00000258,-
 0.00000474,-0.00000844,-0.00000020,-0.00001388,-0.00002235,-0.00000162
 ,-0.00000253,-0.00000853,-0.00000309,0.00001095,0.00001412,-0.00000017
 ,0.00000259,-0.00000844,-0.00000185,-0.00001088,0.00001378,-0.00000057
 ,-0.00000501,0.00000112,0.00001259,0.00000680,-0.00000083,-0.00000185,
 -0.00000847,-0.00000121,-0.00000722,0.00000736,-0.00000038,-0.00000893
 ,-0.00000686,-0.00000070,-0.00000069,0.00000617,0.00000041,0.00001088\
 \\@


 IF YOU DON'T HAVE THE LAW - ARGUE THE FACTS.
 IF YOU DON'T HAVE THE FACTS - ARGUE THE LAW.
 IF YOU DON'T HAVE EITHER - POUND THE TABLE.
 Job cpu time:       0 days  1 hours  2 minutes 30.9 seconds.
 Elapsed time:       0 days  0 hours  3 minutes 54.8 seconds.
 File lengths (MBytes):  RWF=    159 Int=      0 D2E=      0 Chk=     10 Scr=      1
 Normal termination of Gaussian 16 at Fri Apr 29 19:07:47 2022.
