 Entering Gaussian System, Link 0=g16
 Initial command:
 /usr/local/g16/l1.exe "/home/raul/scrgauss16/Gau-14401.inp" -scrdir="/home/raul/scrgauss16/"
 Entering Link 1 = /usr/local/g16/l1.exe PID=     14403.
  
 Copyright (c) 1988,1990,1992,1993,1995,1998,2003,2009,2016,
            Gaussian, Inc.  All Rights Reserved.
  
 This is part of the Gaussian(R) 16 program.  It is based on
 the Gaussian(R) 09 system (copyright 2009, Gaussian, Inc.),
 the Gaussian(R) 03 system (copyright 2003, Gaussian, Inc.),
 the Gaussian(R) 98 system (copyright 1998, Gaussian, Inc.),
 the Gaussian(R) 94 system (copyright 1995, Gaussian, Inc.),
 the Gaussian 92(TM) system (copyright 1992, Gaussian, Inc.),
 the Gaussian 90(TM) system (copyright 1990, Gaussian, Inc.),
 the Gaussian 88(TM) system (copyright 1988, Gaussian, Inc.),
 the Gaussian 86(TM) system (copyright 1986, Carnegie Mellon
 University), and the Gaussian 82(TM) system (copyright 1983,
 Carnegie Mellon University). Gaussian is a federally registered
 trademark of Gaussian, Inc.
  
 This software contains proprietary and confidential information,
 including trade secrets, belonging to Gaussian, Inc.
  
 This software is provided under written license and may be
 used, copied, transmitted, or stored only in accord with that
 written license.
  
 The following legend is applicable only to US Government
 contracts under FAR:
  
                    RESTRICTED RIGHTS LEGEND
  
 Use, reproduction and disclosure by the US Government is
 subject to restrictions as set forth in subparagraphs (a)
 and (c) of the Commercial Computer Software - Restricted
 Rights clause in FAR 52.227-19.
  
 Gaussian, Inc.
 340 Quinnipiac St., Bldg. 40, Wallingford CT 06492
  
  
 ---------------------------------------------------------------
 Warning -- This program may not be used in any manner that
 competes with the business of Gaussian, Inc. or will provide
 assistance to any competitor of Gaussian, Inc.  The licensee
 of this program is prohibited from giving any competitor of
 Gaussian, Inc. access to this program.  By using this program,
 the user acknowledges that Gaussian, Inc. is engaged in the
 business of creating and licensing software in the field of
 computational chemistry and represents and warrants to the
 licensee that it is not a competitor of Gaussian, Inc. and that
 it will not use this program in any manner prohibited above.
 ---------------------------------------------------------------
  

 Cite this work as:
 Gaussian 16, Revision A.03,
 M. J. Frisch, G. W. Trucks, H. B. Schlegel, G. E. Scuseria, 
 M. A. Robb, J. R. Cheeseman, G. Scalmani, V. Barone, 
 G. A. Petersson, H. Nakatsuji, X. Li, M. Caricato, A. V. Marenich, 
 J. Bloino, B. G. Janesko, R. Gomperts, B. Mennucci, H. P. Hratchian, 
 J. V. Ortiz, A. F. Izmaylov, J. L. Sonnenberg, D. Williams-Young, 
 F. Ding, F. Lipparini, F. Egidi, J. Goings, B. Peng, A. Petrone, 
 T. Henderson, D. Ranasinghe, V. G. Zakrzewski, J. Gao, N. Rega, 
 G. Zheng, W. Liang, M. Hada, M. Ehara, K. Toyota, R. Fukuda, 
 J. Hasegawa, M. Ishida, T. Nakajima, Y. Honda, O. Kitao, H. Nakai, 
 T. Vreven, K. Throssell, J. A. Montgomery, Jr., J. E. Peralta, 
 F. Ogliaro, M. J. Bearpark, J. J. Heyd, E. N. Brothers, K. N. Kudin, 
 V. N. Staroverov, T. A. Keith, R. Kobayashi, J. Normand, 
 K. Raghavachari, A. P. Rendell, J. C. Burant, S. S. Iyengar, 
 J. Tomasi, M. Cossi, J. M. Millam, M. Klene, C. Adamo, R. Cammi, 
 J. W. Ochterski, R. L. Martin, K. Morokuma, O. Farkas, 
 J. B. Foresman, and D. J. Fox, Gaussian, Inc., Wallingford CT, 2016.
 
 ******************************************
 Gaussian 16:  ES64L-G16RevA.03 25-Dec-2016
                29-Apr-2022 
 ******************************************
 %chk=ProdDPPH-H-M05etanol.chk
 %nprocshared=30
 Will use up to   30 processors via shared memory.
 %mem=32GB
 ----------------------------------------------------------------------
 # opt freq 6-31+g(d,p) scrf=(smd,solvent=ethanol) iop(1/8=4) m052x scf
 =xqc
 ----------------------------------------------------------------------
 1/8=4,18=20,19=15,26=3,38=1/1,3;
 2/9=110,12=2,17=6,18=5,40=1/2;
 3/5=1,6=6,7=111,11=2,25=1,30=1,70=32201,71=1,72=4,74=-38/1,2,3;
 4//1;
 5/5=2,8=3,13=1,38=5,53=4/2,8;
 6/7=2,8=2,9=2,10=2,28=1/1;
 7//1,2,3,16;
 1/8=4,18=20,19=15,26=3/3(2);
 2/9=110/2;
 99//99;
 2/9=110/2;
 3/5=1,6=6,7=111,11=2,25=1,30=1,70=32205,71=1,72=4,74=-38/1,2,3;
 4/5=5,16=3,69=1/1;
 5/5=2,8=3,13=1,38=5,53=4/2,8;
 7//1,2,3,16;
 1/8=4,18=20,19=15,26=3/3(-5);
 2/9=110/2;
 6/7=2,8=2,9=2,10=2,19=2,28=1/1;
 99/9=1/99;
 -------------------
 Title Card Required
 -------------------
 Symbolic Z-matrix:
 Charge =  0 Multiplicity = 1
 N                    -1.49505  -0.00992   0.1174 
 N                    -0.5069   -0.81669   0.66131 
 C                    -2.72314  -0.68945  -0.12609 
 C                    -3.95642  -0.042     0.01527 
 C                    -2.69118  -2.0371   -0.51069 
 C                    -5.13639  -0.73305  -0.25377 
 H                    -4.00717   0.9905    0.34032 
 C                    -3.87944  -2.71541  -0.76803 
 H                    -1.74141  -2.55182  -0.60492 
 C                    -5.10969  -2.06933  -0.64919 
 H                    -6.08458  -0.21621  -0.13844 
 H                    -3.8362   -3.7589   -1.0658 
 H                    -6.03334  -2.60148  -0.85372 
 C                     0.76391  -0.68345   0.23148 
 C                     1.06165  -0.14549  -1.05239 
 C                     1.91562  -0.98294   1.01779 
 C                     2.32583   0.15126  -1.4919 
 C                     3.20838  -0.71279   0.59021 
 C                     3.39869  -0.13546  -0.64759 
 H                     2.48205   0.56257  -2.48423 
 H                     4.04765  -0.94521   1.23505 
 C                    -1.46026   1.36      0.54572 
 C                    -1.9457    2.3402   -0.32534 
 C                    -0.9005    1.72178   1.77237 
 C                    -1.89631   3.67972   0.04869 
 H                    -2.3572    2.04832  -1.28745 
 C                    -0.84032   3.06961   2.12894 
 H                    -0.50872   0.9649    2.4461 
 C                    -1.34116   4.05051   1.27533 
 H                    -2.27846   4.43658  -0.62962 
 H                    -0.40167   3.34723   3.08264 
 H                    -1.29299   5.09743   1.55835 
 N                     4.74811   0.16016  -1.09427 
 O                     5.67778  -0.14223  -0.36259 
 O                     4.88476   0.69821  -2.18215 
 N                    -0.0039    0.00643  -2.05699 
 O                    -0.60504  -1.00168  -2.38089 
 O                    -0.15948   1.10379  -2.5584 
 O                     2.77932  -1.58523   3.06047 
 O                     0.69642  -1.97834   2.69794 
 N                     1.79152  -1.55039   2.34688 
 H                    -0.67582  -1.21686   1.58158 
 

 GradGradGradGradGradGradGradGradGradGradGradGradGradGradGradGradGradGrad
 Berny optimization.
 Initialization pass.
                           ----------------------------
                           !    Initial Parameters    !
                           ! (Angstroms and Degrees)  !
 --------------------------                            --------------------------
 ! Name  Definition              Value          Derivative Info.                !
 --------------------------------------------------------------------------------
 ! R1    R(1,2)                  1.3868         estimate D2E/DX2                !
 ! R2    R(1,3)                  1.4245         estimate D2E/DX2                !
 ! R3    R(1,22)                 1.4357         estimate D2E/DX2                !
 ! R4    R(2,14)                 1.3481         estimate D2E/DX2                !
 ! R5    R(2,42)                 1.0176         estimate D2E/DX2                !
 ! R6    R(3,4)                  1.4001         estimate D2E/DX2                !
 ! R7    R(3,5)                  1.4018         estimate D2E/DX2                !
 ! R8    R(4,6)                  1.3936         estimate D2E/DX2                !
 ! R9    R(4,7)                  1.0836         estimate D2E/DX2                !
 ! R10   R(5,8)                  1.3922         estimate D2E/DX2                !
 ! R11   R(5,9)                  1.0844         estimate D2E/DX2                !
 ! R12   R(6,10)                 1.3938         estimate D2E/DX2                !
 ! R13   R(6,11)                 1.086          estimate D2E/DX2                !
 ! R14   R(8,10)                 1.3947         estimate D2E/DX2                !
 ! R15   R(8,12)                 1.086          estimate D2E/DX2                !
 ! R16   R(10,13)                1.0854         estimate D2E/DX2                !
 ! R17   R(14,15)                1.4235         estimate D2E/DX2                !
 ! R18   R(14,16)                1.4263         estimate D2E/DX2                !
 ! R19   R(15,17)                1.3709         estimate D2E/DX2                !
 ! R20   R(15,36)                1.4723         estimate D2E/DX2                !
 ! R21   R(16,18)                1.3882         estimate D2E/DX2                !
 ! R22   R(16,41)                1.4505         estimate D2E/DX2                !
 ! R23   R(17,19)                1.395          estimate D2E/DX2                !
 ! R24   R(17,20)                1.0855         estimate D2E/DX2                !
 ! R25   R(18,19)                1.379          estimate D2E/DX2                !
 ! R26   R(18,21)                1.0836         estimate D2E/DX2                !
 ! R27   R(19,33)                1.4518         estimate D2E/DX2                !
 ! R28   R(22,23)                1.3983         estimate D2E/DX2                !
 ! R29   R(22,24)                1.396          estimate D2E/DX2                !
 ! R30   R(23,25)                1.3916         estimate D2E/DX2                !
 ! R31   R(23,26)                1.0864         estimate D2E/DX2                !
 ! R32   R(24,27)                1.3955         estimate D2E/DX2                !
 ! R33   R(24,28)                1.0864         estimate D2E/DX2                !
 ! R34   R(25,29)                1.3965         estimate D2E/DX2                !
 ! R35   R(25,30)                1.0858         estimate D2E/DX2                !
 ! R36   R(27,29)                1.3934         estimate D2E/DX2                !
 ! R37   R(27,31)                1.0858         estimate D2E/DX2                !
 ! R38   R(29,32)                1.0856         estimate D2E/DX2                !
 ! R39   R(33,34)                1.2211         estimate D2E/DX2                !
 ! R40   R(33,35)                1.2213         estimate D2E/DX2                !
 ! R41   R(36,37)                1.2176         estimate D2E/DX2                !
 ! R42   R(36,38)                1.2165         estimate D2E/DX2                !
 ! R43   R(39,41)                1.2191         estimate D2E/DX2                !
 ! R44   R(40,41)                1.227          estimate D2E/DX2                !
 ! A1    A(2,1,3)              113.8172         estimate D2E/DX2                !
 ! A2    A(2,1,22)             114.8864         estimate D2E/DX2                !
 ! A3    A(3,1,22)             121.8051         estimate D2E/DX2                !
 ! A4    A(1,2,14)             119.2837         estimate D2E/DX2                !
 ! A5    A(1,2,42)             117.7219         estimate D2E/DX2                !
 ! A6    A(14,2,42)            118.9251         estimate D2E/DX2                !
 ! A7    A(1,3,4)              121.4373         estimate D2E/DX2                !
 ! A8    A(1,3,5)              119.0669         estimate D2E/DX2                !
 ! A9    A(4,3,5)              119.4954         estimate D2E/DX2                !
 ! A10   A(3,4,6)              119.8037         estimate D2E/DX2                !
 ! A11   A(3,4,7)              120.8072         estimate D2E/DX2                !
 ! A12   A(6,4,7)              119.3871         estimate D2E/DX2                !
 ! A13   A(3,5,8)              119.9763         estimate D2E/DX2                !
 ! A14   A(3,5,9)              120.0091         estimate D2E/DX2                !
 ! A15   A(8,5,9)              120.0144         estimate D2E/DX2                !
 ! A16   A(4,6,10)             120.9262         estimate D2E/DX2                !
 ! A17   A(4,6,11)             118.8646         estimate D2E/DX2                !
 ! A18   A(10,6,11)            120.2049         estimate D2E/DX2                !
 ! A19   A(5,8,10)             120.7596         estimate D2E/DX2                !
 ! A20   A(5,8,12)             119.0018         estimate D2E/DX2                !
 ! A21   A(10,8,12)            120.2385         estimate D2E/DX2                !
 ! A22   A(6,10,8)             119.0255         estimate D2E/DX2                !
 ! A23   A(6,10,13)            120.4771         estimate D2E/DX2                !
 ! A24   A(8,10,13)            120.4956         estimate D2E/DX2                !
 ! A25   A(2,14,15)            121.4711         estimate D2E/DX2                !
 ! A26   A(2,14,16)            124.377          estimate D2E/DX2                !
 ! A27   A(15,14,16)           114.0582         estimate D2E/DX2                !
 ! A28   A(14,15,17)           124.3209         estimate D2E/DX2                !
 ! A29   A(14,15,36)           120.1999         estimate D2E/DX2                !
 ! A30   A(17,15,36)           115.2327         estimate D2E/DX2                !
 ! A31   A(14,16,18)           122.7722         estimate D2E/DX2                !
 ! A32   A(14,16,41)           121.2117         estimate D2E/DX2                !
 ! A33   A(18,16,41)           115.9797         estimate D2E/DX2                !
 ! A34   A(15,17,19)           118.0773         estimate D2E/DX2                !
 ! A35   A(15,17,20)           120.5179         estimate D2E/DX2                !
 ! A36   A(19,17,20)           121.3654         estimate D2E/DX2                !
 ! A37   A(16,18,19)           119.1086         estimate D2E/DX2                !
 ! A38   A(16,18,21)           119.7513         estimate D2E/DX2                !
 ! A39   A(19,18,21)           121.1353         estimate D2E/DX2                !
 ! A40   A(17,19,18)           121.5452         estimate D2E/DX2                !
 ! A41   A(17,19,33)           119.1267         estimate D2E/DX2                !
 ! A42   A(18,19,33)           119.3192         estimate D2E/DX2                !
 ! A43   A(1,22,23)            118.334          estimate D2E/DX2                !
 ! A44   A(1,22,24)            121.273          estimate D2E/DX2                !
 ! A45   A(23,22,24)           120.3254         estimate D2E/DX2                !
 ! A46   A(22,23,25)           119.6695         estimate D2E/DX2                !
 ! A47   A(22,23,26)           119.6607         estimate D2E/DX2                !
 ! A48   A(25,23,26)           120.6697         estimate D2E/DX2                !
 ! A49   A(22,24,27)           119.4788         estimate D2E/DX2                !
 ! A50   A(22,24,28)           120.5945         estimate D2E/DX2                !
 ! A51   A(27,24,28)           119.926          estimate D2E/DX2                !
 ! A52   A(23,25,29)           120.3812         estimate D2E/DX2                !
 ! A53   A(23,25,30)           119.3767         estimate D2E/DX2                !
 ! A54   A(29,25,30)           120.2341         estimate D2E/DX2                !
 ! A55   A(24,27,29)           120.5225         estimate D2E/DX2                !
 ! A56   A(24,27,31)           119.2606         estimate D2E/DX2                !
 ! A57   A(29,27,31)           120.2165         estimate D2E/DX2                !
 ! A58   A(25,29,27)           119.6063         estimate D2E/DX2                !
 ! A59   A(25,29,32)           120.1785         estimate D2E/DX2                !
 ! A60   A(27,29,32)           120.2133         estimate D2E/DX2                !
 ! A61   A(19,33,34)           118.2198         estimate D2E/DX2                !
 ! A62   A(19,33,35)           117.8882         estimate D2E/DX2                !
 ! A63   A(34,33,35)           123.892          estimate D2E/DX2                !
 ! A64   A(15,36,37)           116.9614         estimate D2E/DX2                !
 ! A65   A(15,36,38)           117.8322         estimate D2E/DX2                !
 ! A66   A(37,36,38)           125.0354         estimate D2E/DX2                !
 ! A67   A(16,41,39)           118.5692         estimate D2E/DX2                !
 ! A68   A(16,41,40)           118.3571         estimate D2E/DX2                !
 ! A69   A(39,41,40)           123.073          estimate D2E/DX2                !
 ! D1    D(3,1,2,14)           139.615          estimate D2E/DX2                !
 ! D2    D(3,1,2,42)           -63.2928         estimate D2E/DX2                !
 ! D3    D(22,1,2,14)          -73.2628         estimate D2E/DX2                !
 ! D4    D(22,1,2,42)           83.8295         estimate D2E/DX2                !
 ! D5    D(2,1,3,4)            145.9181         estimate D2E/DX2                !
 ! D6    D(2,1,3,5)            -33.8464         estimate D2E/DX2                !
 ! D7    D(22,1,3,4)             1.3298         estimate D2E/DX2                !
 ! D8    D(22,1,3,5)          -178.4347         estimate D2E/DX2                !
 ! D9    D(2,1,22,23)          151.214          estimate D2E/DX2                !
 ! D10   D(2,1,22,24)          -25.8041         estimate D2E/DX2                !
 ! D11   D(3,1,22,23)          -64.544          estimate D2E/DX2                !
 ! D12   D(3,1,22,24)          118.4379         estimate D2E/DX2                !
 ! D13   D(1,2,14,15)          -23.9388         estimate D2E/DX2                !
 ! D14   D(1,2,14,16)          152.3306         estimate D2E/DX2                !
 ! D15   D(42,2,14,15)         179.2448         estimate D2E/DX2                !
 ! D16   D(42,2,14,16)          -4.4858         estimate D2E/DX2                !
 ! D17   D(1,3,4,6)            178.9075         estimate D2E/DX2                !
 ! D18   D(1,3,4,7)             -1.6165         estimate D2E/DX2                !
 ! D19   D(5,3,4,6)             -1.329          estimate D2E/DX2                !
 ! D20   D(5,3,4,7)            178.147          estimate D2E/DX2                !
 ! D21   D(1,3,5,8)           -179.2791         estimate D2E/DX2                !
 ! D22   D(1,3,5,9)              0.8976         estimate D2E/DX2                !
 ! D23   D(4,3,5,8)              0.9518         estimate D2E/DX2                !
 ! D24   D(4,3,5,9)           -178.8716         estimate D2E/DX2                !
 ! D25   D(3,4,6,10)             0.7116         estimate D2E/DX2                !
 ! D26   D(3,4,6,11)           179.9563         estimate D2E/DX2                !
 ! D27   D(7,4,6,10)          -178.7718         estimate D2E/DX2                !
 ! D28   D(7,4,6,11)             0.4729         estimate D2E/DX2                !
 ! D29   D(3,5,8,10)             0.0553         estimate D2E/DX2                !
 ! D30   D(3,5,8,12)           179.9448         estimate D2E/DX2                !
 ! D31   D(9,5,8,10)           179.8787         estimate D2E/DX2                !
 ! D32   D(9,5,8,12)            -0.2319         estimate D2E/DX2                !
 ! D33   D(4,6,10,8)             0.2933         estimate D2E/DX2                !
 ! D34   D(4,6,10,13)          179.7971         estimate D2E/DX2                !
 ! D35   D(11,6,10,8)         -178.9414         estimate D2E/DX2                !
 ! D36   D(11,6,10,13)           0.5624         estimate D2E/DX2                !
 ! D37   D(5,8,10,6)            -0.6781         estimate D2E/DX2                !
 ! D38   D(5,8,10,13)          179.8182         estimate D2E/DX2                !
 ! D39   D(12,8,10,6)          179.4339         estimate D2E/DX2                !
 ! D40   D(12,8,10,13)          -0.0699         estimate D2E/DX2                !
 ! D41   D(2,14,15,17)         172.5834         estimate D2E/DX2                !
 ! D42   D(2,14,15,36)         -13.3991         estimate D2E/DX2                !
 ! D43   D(16,14,15,17)         -4.0451         estimate D2E/DX2                !
 ! D44   D(16,14,15,36)        169.9724         estimate D2E/DX2                !
 ! D45   D(2,14,16,18)        -173.6053         estimate D2E/DX2                !
 ! D46   D(2,14,16,41)           4.1105         estimate D2E/DX2                !
 ! D47   D(15,14,16,18)          2.9105         estimate D2E/DX2                !
 ! D48   D(15,14,16,41)       -179.3737         estimate D2E/DX2                !
 ! D49   D(14,15,17,19)          2.4067         estimate D2E/DX2                !
 ! D50   D(14,15,17,20)       -179.8486         estimate D2E/DX2                !
 ! D51   D(36,15,17,19)       -171.8782         estimate D2E/DX2                !
 ! D52   D(36,15,17,20)          5.8665         estimate D2E/DX2                !
 ! D53   D(14,15,36,37)        -58.3428         estimate D2E/DX2                !
 ! D54   D(14,15,36,38)        126.1681         estimate D2E/DX2                !
 ! D55   D(17,15,36,37)        116.1967         estimate D2E/DX2                !
 ! D56   D(17,15,36,38)        -59.2923         estimate D2E/DX2                !
 ! D57   D(14,16,18,19)         -0.2642         estimate D2E/DX2                !
 ! D58   D(14,16,18,21)        178.9473         estimate D2E/DX2                !
 ! D59   D(41,16,18,19)       -178.091          estimate D2E/DX2                !
 ! D60   D(41,16,18,21)          1.1204         estimate D2E/DX2                !
 ! D61   D(14,16,41,39)       -168.1631         estimate D2E/DX2                !
 ! D62   D(14,16,41,40)         12.1345         estimate D2E/DX2                !
 ! D63   D(18,16,41,39)          9.7005         estimate D2E/DX2                !
 ! D64   D(18,16,41,40)       -170.0019         estimate D2E/DX2                !
 ! D65   D(15,17,19,18)          0.6361         estimate D2E/DX2                !
 ! D66   D(15,17,19,33)        179.5385         estimate D2E/DX2                !
 ! D67   D(20,17,19,18)       -177.0885         estimate D2E/DX2                !
 ! D68   D(20,17,19,33)          1.8139         estimate D2E/DX2                !
 ! D69   D(16,18,19,17)         -1.6528         estimate D2E/DX2                !
 ! D70   D(16,18,19,33)        179.4468         estimate D2E/DX2                !
 ! D71   D(21,18,19,17)        179.1469         estimate D2E/DX2                !
 ! D72   D(21,18,19,33)          0.2466         estimate D2E/DX2                !
 ! D73   D(17,19,33,34)       -177.3726         estimate D2E/DX2                !
 ! D74   D(17,19,33,35)          2.6507         estimate D2E/DX2                !
 ! D75   D(18,19,33,34)          1.5545         estimate D2E/DX2                !
 ! D76   D(18,19,33,35)       -178.4221         estimate D2E/DX2                !
 ! D77   D(1,22,23,25)        -178.4945         estimate D2E/DX2                !
 ! D78   D(1,22,23,26)           1.4776         estimate D2E/DX2                !
 ! D79   D(24,22,23,25)         -1.4471         estimate D2E/DX2                !
 ! D80   D(24,22,23,26)        178.5251         estimate D2E/DX2                !
 ! D81   D(1,22,24,27)         177.5626         estimate D2E/DX2                !
 ! D82   D(1,22,24,28)          -2.1358         estimate D2E/DX2                !
 ! D83   D(23,22,24,27)          0.6033         estimate D2E/DX2                !
 ! D84   D(23,22,24,28)       -179.0951         estimate D2E/DX2                !
 ! D85   D(22,23,25,29)          1.2832         estimate D2E/DX2                !
 ! D86   D(22,23,25,30)       -179.7412         estimate D2E/DX2                !
 ! D87   D(26,23,25,29)       -178.6887         estimate D2E/DX2                !
 ! D88   D(26,23,25,30)          0.2869         estimate D2E/DX2                !
 ! D89   D(22,24,27,29)          0.4116         estimate D2E/DX2                !
 ! D90   D(22,24,27,31)       -179.8298         estimate D2E/DX2                !
 ! D91   D(28,24,27,29)       -179.888          estimate D2E/DX2                !
 ! D92   D(28,24,27,31)         -0.1293         estimate D2E/DX2                !
 ! D93   D(23,25,29,27)         -0.279          estimate D2E/DX2                !
 ! D94   D(23,25,29,32)        179.2304         estimate D2E/DX2                !
 ! D95   D(30,25,29,27)       -179.2457         estimate D2E/DX2                !
 ! D96   D(30,25,29,32)          0.2637         estimate D2E/DX2                !
 ! D97   D(24,27,29,25)         -0.5749         estimate D2E/DX2                !
 ! D98   D(24,27,29,32)        179.9159         estimate D2E/DX2                !
 ! D99   D(31,27,29,25)        179.6688         estimate D2E/DX2                !
 ! D100  D(31,27,29,32)          0.1595         estimate D2E/DX2                !
 --------------------------------------------------------------------------------
 Trust Radius=4.00D-02 FncErr=1.00D-07 GrdErr=1.00D-06 EigMax=2.50D+02 EigMin=1.00D-04
 Number of steps in this run=    223 maximum allowed number of steps=    252.
 GradGradGradGradGradGradGradGradGradGradGradGradGradGradGradGradGradGrad

                          Input orientation:                          
 ---------------------------------------------------------------------
 Center     Atomic      Atomic             Coordinates (Angstroms)
 Number     Number       Type             X           Y           Z
 ---------------------------------------------------------------------
      1          7           0       -1.495046   -0.009919    0.117398
      2          7           0       -0.506904   -0.816691    0.661305
      3          6           0       -2.723139   -0.689447   -0.126090
      4          6           0       -3.956424   -0.042004    0.015273
      5          6           0       -2.691182   -2.037098   -0.510685
      6          6           0       -5.136393   -0.733047   -0.253765
      7          1           0       -4.007168    0.990497    0.340317
      8          6           0       -3.879440   -2.715405   -0.768032
      9          1           0       -1.741412   -2.551823   -0.604918
     10          6           0       -5.109694   -2.069333   -0.649192
     11          1           0       -6.084584   -0.216214   -0.138442
     12          1           0       -3.836198   -3.758904   -1.065802
     13          1           0       -6.033335   -2.601483   -0.853720
     14          6           0        0.763908   -0.683453    0.231477
     15          6           0        1.061648   -0.145487   -1.052393
     16          6           0        1.915624   -0.982939    1.017788
     17          6           0        2.325834    0.151261   -1.491902
     18          6           0        3.208381   -0.712787    0.590210
     19          6           0        3.398689   -0.135460   -0.647585
     20          1           0        2.482045    0.562572   -2.484225
     21          1           0        4.047645   -0.945206    1.235051
     22          6           0       -1.460264    1.360001    0.545723
     23          6           0       -1.945704    2.340198   -0.325336
     24          6           0       -0.900498    1.721779    1.772366
     25          6           0       -1.896306    3.679716    0.048693
     26          1           0       -2.357197    2.048320   -1.287448
     27          6           0       -0.840321    3.069613    2.128936
     28          1           0       -0.508721    0.964900    2.446095
     29          6           0       -1.341163    4.050514    1.275330
     30          1           0       -2.278458    4.436580   -0.629618
     31          1           0       -0.401673    3.347232    3.082643
     32          1           0       -1.292993    5.097429    1.558354
     33          7           0        4.748106    0.160158   -1.094269
     34          8           0        5.677780   -0.142230   -0.362591
     35          8           0        4.884763    0.698210   -2.182154
     36          7           0       -0.003895    0.006426   -2.056993
     37          8           0       -0.605035   -1.001678   -2.380890
     38          8           0       -0.159482    1.103789   -2.558400
     39          8           0        2.779315   -1.585230    3.060473
     40          8           0        0.696417   -1.978341    2.697939
     41          7           0        1.791520   -1.550390    2.346875
     42          1           0       -0.675824   -1.216863    1.581579
 ---------------------------------------------------------------------
                    Distance matrix (angstroms):
                    1          2          3          4          5
     1  N    0.000000
     2  N    1.386773   0.000000
     3  C    1.424520   2.355394   0.000000
     4  C    2.463705   3.593979   1.400056   0.000000
     5  C    2.436121   2.762974   1.401819   2.420304   0.000000
     6  C    3.730963   4.719801   2.417022   1.393646   2.783094
     7  H    2.713168   3.952317   2.165289   1.083645   3.409158
     8  C    3.713351   4.125787   2.419427   2.786856   1.392223
     9  H    2.653999   2.477502   2.159053   3.404425   1.084382
    10  C    4.230192   4.946937   2.805952   2.425203   2.422689
    11  H    4.601290   5.666629   3.394616   2.140804   3.869026
    12  H    4.575570   4.766940   3.397576   3.872793   2.140989
    13  H    5.315575   6.001852   3.891365   3.408759   3.406786
    14  C    2.359986   1.348135   3.505337   4.768620   3.784284
    15  C    2.814867   2.418188   3.934278   5.131439   4.237378
    16  C    3.659254   2.454254   4.786723   6.030866   4.966905
    17  C    4.149090   3.687497   5.297581   6.463412   5.560769
    18  C    4.779100   3.717418   5.974660   7.219067   6.145780
    19  C    4.954755   4.175036   6.168925   7.385513   6.381340
    20  H    4.786799   4.553080   5.849982   6.933029   6.116815
    21  H    5.731085   4.592343   6.910979   8.146702   7.046390
    22  C    1.435741   2.379126   2.499285   2.911668   3.764497
    23  C    2.433548   3.606876   3.134143   3.135904   4.444189
    24  C    2.468032   2.798786   3.569337   3.941699   4.748476
    25  C    3.712026   4.745883   4.450145   4.253987   5.798853
    26  H    2.636901   3.928042   2.996337   2.936676   4.171996
    27  C    3.736103   4.167549   4.770815   4.884652   6.039187
    28  H    2.710339   2.521814   3.775797   4.336981   4.745279
    29  C    4.225116   4.976213   5.132355   5.017573   6.486249
    30  H    4.576365   5.692253   5.169858   4.825885   6.487911
    31  H    4.610706   4.817905   5.655082   5.790676   6.866212
    32  H    5.310573   6.033196   6.194401   5.990721   7.558924
    33  N    6.361919   5.625958   7.581471   8.777289   7.778914
    34  O    7.190085   6.305044   8.422044   9.642132   8.582073
    35  O    6.818456   6.280944   8.002072   9.140196   8.226218
    36  N    2.636622   2.884386   3.406892   4.463084   3.713296
    37  O    2.831457   3.049393   3.109337   4.230175   2.986933
    38  O    3.191234   3.765029   3.962848   4.727939   4.524137
    39  O    5.423417   4.140760   6.421340   7.551488   6.548564
    40  O    3.916170   2.635392   4.618414   5.709205   4.666321
    41  N    4.259711   2.943164   5.219092   6.383608   5.338272
    42  H    2.066801   1.017632   2.717683   3.820464   3.018613
                    6          7          8          9         10
     6  C    0.000000
     7  H    2.144455   0.000000
     8  C    2.402945   3.870202   0.000000
     9  H    3.867448   4.309890   2.150472   0.000000
    10  C    1.393821   3.399596   1.394653   3.402952   0.000000
    11  H    1.086040   2.449698   3.391902   4.953364   2.155302
    12  H    3.392009   4.956129   1.086014   2.461217   2.156387
    13  H    2.157662   4.293413   2.158607   4.299415   1.085416
    14  C    5.920428   5.057383   5.166094   3.235273   6.098807
    15  C    6.276842   5.378010   5.576710   3.721268   6.476821
    16  C    7.170093   6.279561   6.306612   4.297497   7.301655
    17  C    7.615761   6.645920   6.873659   4.963456   7.805657
    18  C    8.387369   7.418071   7.489493   5.413948   8.518609
    19  C    8.565035   7.555822   7.722809   5.679900   8.725391
    20  H    8.043269   7.090208   7.359276   5.573943   8.241891
    21  H    9.306349   8.332317   8.365681   6.283302   9.416522
    22  C    4.305108   2.581752   4.918058   4.087222   5.148446
    23  C    4.430627   2.552336   5.430878   4.904260   5.436881
    24  C    5.298508   3.498133   5.917459   4.962085   6.160666
    25  C    5.482894   3.431134   6.745178   6.267637   6.623026
    26  H    4.065518   2.547747   5.027931   4.691093   4.993864
    27  C    6.212385   4.189368   7.148084   6.315573   7.235628
    28  H    5.620286   4.083392   5.936076   4.816176   6.321101
    29  C    6.294788   4.164797   7.509716   6.876510   7.440305
    30  H    5.918961   3.975513   7.330293   7.009052   7.095293
    31  H    7.085045   5.106285   7.979858   7.084621   8.088957
    32  H    7.214565   5.071218   8.552319   7.961902   8.414448
    33  N    9.960300   8.910798   9.099991   7.050401  10.116568
    34  O   10.830847   9.776266   9.905860   7.804439  10.962001
    35  O   10.304890   9.247417   9.511244   7.546959  10.483246
    36  N    5.490081   4.768824   4.908119   3.416449   5.688573
    37  O    5.012986   4.790432   4.032357   2.616941   4.942734
    38  O    5.784026   4.818722   5.624033   4.436451   6.182101
    39  O    8.623736   7.751772   7.763618   5.899692   8.731119
    40  O    6.654697   6.041200   5.787459   4.144968   6.702424
    41  N    7.444955   6.641322   6.574169   4.711428   7.541384
    42  H    4.847602   4.184617   4.246111   2.774593   5.036094
                   11         12         13         14         15
    11  H    0.000000
    12  H    4.297195   0.000000
    13  H    2.490734   2.492391   0.000000
    14  C    6.874372   5.683512   7.145558   0.000000
    15  C    7.204786   6.086531   7.510670   1.423509   0.000000
    16  C    8.119610   6.717945   8.325153   1.426333   2.390868
    17  C    8.526548   7.310375   8.823864   2.471112   1.370910
    18  C    9.334705   7.851579   9.542611   2.470829   2.761962
    19  C    9.497274   8.102336   9.751248   2.831098   2.371862
    20  H    8.916072   7.785067   9.229382   3.446681   2.137526
    21  H   10.250852   8.681348  10.427482   3.443632   3.845534
    22  C    4.933241   5.869009   6.210054   3.036675   3.343727
    23  C    4.868316   6.428165   6.434915   4.098110   3.968804
    24  C    5.855062   6.834575   7.206451   3.306014   3.913561
    25  C    5.723195   7.767776   7.575145   5.113452   4.959240
    26  H    4.510182   5.996701   5.943297   4.417127   4.068973
    27  C    6.590900   8.112353   8.247725   4.501045   4.906649
    28  H    6.258203   6.761645   7.357257   3.039932   3.992297
    29  C    6.534812   8.526025   8.414178   5.285016   5.366397
    30  H    6.031280   8.353608   7.980204   6.017658   5.685981
    31  H    7.441036   8.916430   9.088332   5.072884   5.607042
    32  H    7.353452   9.580643   9.357467   6.277742   6.312567
    33  N   10.881288   9.436638  11.132115   4.282886   3.699344
    34  O   11.764732  10.202481  11.976617   4.979154   4.667388
    35  O   11.195513   9.857346  11.482925   4.971524   4.074849
    36  N    6.380062   5.463215   6.678563   2.510488   1.472305
    37  O    5.972519   4.446590   5.861575   2.966434   2.296911
    38  O    6.534940   6.276294   7.151023   3.439520   2.306492
    39  O    9.522393   8.094196   9.696209   3.588633   4.683899
    40  O    7.558579   6.154734   7.634930   2.786526   4.190195
    41  N    8.365993   6.942270   8.519211   2.506487   3.749865
    42  H    5.763198   4.843404   6.045724   2.044537   3.332336
                   16         17         18         19         20
    16  C    0.000000
    17  C    2.784461   0.000000
    18  C    1.388174   2.420880   0.000000
    19  C    2.385617   1.395026   1.379007   0.000000
    20  H    3.869565   1.085488   3.406795   2.168117   0.000000
    21  H    2.143395   3.406339   1.083606   2.149686   4.307843
    22  C    4.136283   4.466263   5.108295   5.222051   5.035700
    23  C    5.268498   4.939469   6.059995   5.898751   5.236957
    24  C    3.976862   4.850896   4.920111   5.271481   5.559130
    25  C    6.100025   5.714009   6.756120   6.563333   5.941567
    26  H    5.723604   5.056819   6.490375   6.189390   5.201729
    27  C    5.025242   5.625992   5.750323   5.995896   6.213262
    28  H    3.422220   4.919810   4.480602   5.103871   5.780537
    29  C    6.000720   6.025663   6.622445   6.609552   6.396633
    30  H    7.048082   6.348779   7.622950   7.289298   6.411700
    31  H    5.327652   6.211279   5.977329   6.362900   6.860042
    32  H    6.896253   6.845769   7.413385   7.366218   7.152502
    33  N    3.713544   2.454708   2.443411   1.451841   2.688670
    34  O    4.094637   3.549228   2.707637   2.296851   3.900102
    35  O    4.677785   2.706237   3.533719   2.293103   2.425427
    36  N    3.757349   2.401654   4.224177   3.685667   2.582968
    37  O    4.231440   3.272547   4.842833   4.447975   3.462314
    38  O    4.631373   2.867320   4.955421   4.224634   2.697421
    39  O    2.298103   4.893380   2.654704   4.029287   5.953579
    40  O    2.302216   4.974432   3.514842   4.678784   6.041484
    41  N    1.450474   4.232885   2.407269   3.681278   5.317985
    42  H    2.662364   4.508658   4.040291   4.768675   5.446952
                   21         22         23         24         25
    21  H    0.000000
    22  C    6.010509   0.000000
    23  C    7.010629   1.398278   0.000000
    24  C    5.646737   1.396021   2.423892   0.000000
    25  C    7.624166   2.412105   1.391634   2.792168   0.000000
    26  H    7.506411   2.153785   1.086360   3.404565   2.158506
    27  C    6.388272   2.411154   2.788793   1.395500   2.411377
    28  H    5.086807   2.161701   3.411333   1.086400   3.878551
    29  C    7.348339   2.790228   2.419252   2.421619   1.396536
    30  H    8.512355   3.393554   2.144325   3.877943   1.085813
    31  H    6.452523   3.392000   3.874593   2.146567   3.398430
    32  H    8.070959   3.875793   3.402447   3.405124   2.157075
    33  N    2.671742   6.532462   7.081732   6.524031   7.605384
    34  O    2.419622   7.350742   8.017565   7.162842   8.493716
    35  O    3.883152   6.938202   7.266304   7.082031   7.736211
    36  N    5.306424   3.275257   3.495104   4.290725   4.637693
    37  O    5.892847   3.856684   4.146183   4.975344   5.430074
    38  O    6.023999   3.375390   3.115425   4.436953   4.055723
    39  O    2.313106   5.742158   7.014164   5.112392   7.658453
    40  O    3.799755   4.519716   5.896675   4.134938   6.764194
    41  N    2.586987   4.721083   6.020318   4.275992   6.799685
    42  H    4.743948   2.885927   4.231029   2.953387   5.274069
                   26         27         28         29         30
    26  H    0.000000
    27  C    3.875001   0.000000
    28  H    4.304649   2.154151   0.000000
    29  C    3.407189   1.393432   3.403625   0.000000
    30  H    2.478452   3.398008   4.964327   2.157868   0.000000
    31  H    4.960740   1.085837   2.468230   2.154908   4.299986
    32  H    4.304438   2.154649   4.298949   1.085566   2.488993
    33  N    7.354441   7.077040   6.388741   7.604542   8.238707
    34  O    8.379423   7.681750   6.883840   8.338312   9.183601
    35  O    7.420868   7.548883   7.112066   7.871105   8.227850
    36  N    3.209293   5.254020   4.631557   5.408078   5.180473
    37  O    3.683500   6.080239   5.213107   6.279687   5.953314
    38  O    2.708765   5.128267   5.018588   4.977654   4.395197
    39  O    7.647932   5.969681   4.206163   7.206017   8.686774
    40  O    6.435982   5.307275   3.190368   6.520939   7.814968
    41  N    6.585656   5.321514   3.409932   6.506307   7.827390
    42  H    4.660445   4.324412   2.352743   5.318056   6.278475
                   31         32         33         34         35
    31  H    0.000000
    32  H    2.486181   0.000000
    33  N    7.356919   8.240627   0.000000
    34  O    7.810617   8.929487   1.221100   0.000000
    35  O    7.917185   8.456311   1.221339   2.155464   0.000000
    36  N    6.142888   6.375799   4.850978   5.930812   4.938948
    37  O    6.986027   7.293150   5.626844   6.654769   5.750391
    38  O    6.075612   5.846509   5.207546   6.359856   5.074491
    39  O    5.869272   7.968562   4.917764   4.711764   6.093615
    40  O    5.451195   7.437938   5.947285   6.127979   6.965736
    41  N    5.416470   7.370854   4.848592   4.942382   5.927601
    42  H    4.812413   6.344424   6.202851   6.730744   6.982358
                   36         37         38         39         40
    36  N    0.000000
    37  O    1.217601   0.000000
    38  O    1.216479   2.159402   0.000000
    39  O    6.038881   6.434500   6.887604   0.000000
    40  O    5.199915   5.333118   6.153145   2.150449   0.000000
    41  N    5.004123   5.328820   5.908705   1.219088   1.227045
    42  H    3.897067   3.968939   4.774040   3.776348   1.925916
                   41         42
    41  N    0.000000
    42  H    2.604747   0.000000
 Stoichiometry    C18H13N5O6
 Framework group  C1[X(C18H13N5O6)]
 Deg. of freedom   120
 Full point group                 C1      NOp   1
 Largest Abelian subgroup         C1      NOp   1
 Largest concise Abelian subgroup C1      NOp   1
                         Standard orientation:                         
 ---------------------------------------------------------------------
 Center     Atomic      Atomic             Coordinates (Angstroms)
 Number     Number       Type             X           Y           Z
 ---------------------------------------------------------------------
      1          7           0       -1.495046   -0.009919    0.117398
      2          7           0       -0.506904   -0.816691    0.661305
      3          6           0       -2.723139   -0.689447   -0.126090
      4          6           0       -3.956424   -0.042004    0.015273
      5          6           0       -2.691182   -2.037098   -0.510685
      6          6           0       -5.136393   -0.733047   -0.253765
      7          1           0       -4.007168    0.990497    0.340317
      8          6           0       -3.879440   -2.715405   -0.768032
      9          1           0       -1.741412   -2.551823   -0.604918
     10          6           0       -5.109694   -2.069333   -0.649192
     11          1           0       -6.084584   -0.216214   -0.138442
     12          1           0       -3.836198   -3.758904   -1.065802
     13          1           0       -6.033335   -2.601483   -0.853720
     14          6           0        0.763908   -0.683453    0.231477
     15          6           0        1.061648   -0.145487   -1.052393
     16          6           0        1.915624   -0.982939    1.017788
     17          6           0        2.325834    0.151261   -1.491902
     18          6           0        3.208381   -0.712787    0.590210
     19          6           0        3.398689   -0.135460   -0.647585
     20          1           0        2.482045    0.562572   -2.484225
     21          1           0        4.047645   -0.945206    1.235051
     22          6           0       -1.460264    1.360001    0.545723
     23          6           0       -1.945704    2.340198   -0.325336
     24          6           0       -0.900498    1.721779    1.772366
     25          6           0       -1.896306    3.679716    0.048693
     26          1           0       -2.357197    2.048320   -1.287448
     27          6           0       -0.840321    3.069613    2.128936
     28          1           0       -0.508721    0.964900    2.446095
     29          6           0       -1.341163    4.050514    1.275330
     30          1           0       -2.278458    4.436580   -0.629618
     31          1           0       -0.401673    3.347232    3.082643
     32          1           0       -1.292993    5.097429    1.558354
     33          7           0        4.748106    0.160158   -1.094269
     34          8           0        5.677780   -0.142230   -0.362591
     35          8           0        4.884763    0.698210   -2.182154
     36          7           0       -0.003895    0.006426   -2.056993
     37          8           0       -0.605035   -1.001678   -2.380890
     38          8           0       -0.159482    1.103789   -2.558400
     39          8           0        2.779315   -1.585230    3.060473
     40          8           0        0.696417   -1.978341    2.697939
     41          7           0        1.791520   -1.550390    2.346875
     42          1           0       -0.675824   -1.216863    1.581579
 ---------------------------------------------------------------------
 Rotational constants (GHZ):           0.2486586           0.1198071           0.1148470
 Standard basis: 6-31+G(d,p) (6D, 7F)
 There are   616 symmetry adapted cartesian basis functions of A   symmetry.
 There are   616 symmetry adapted basis functions of A   symmetry.
   616 basis functions,  1019 primitive gaussians,   616 cartesian basis functions
   102 alpha electrons      102 beta electrons
       nuclear repulsion energy      2795.2916627992 Hartrees.
 NAtoms=   42 NActive=   42 NUniq=   42 SFac= 1.00D+00 NAtFMM=   60 NAOKFM=F Big=F
 Integral buffers will be    131072 words long.
 Raffenetti 2 integral format.
 Two-electron integral symmetry is turned on.
 ------------------------------------------------------------------------------
 Polarizable Continuum Model (PCM)
 =================================
 Model                : PCM.
 Atomic radii         : SMD-Coulomb.
 Polarization charges : Total charges.
 Charge compensation  : None.
 Solution method      : On-the-fly selection.
 Cavity type          : VdW (van der Waals Surface) (Alpha=1.000).
 Cavity algorithm     : GePol (No added spheres)
                        Default sphere list used, NSphG=   42.
                        Lebedev-Laikov grids with approx.  5.0 points / Ang**2.
                        Smoothing algorithm: York/Karplus (Gamma=1.0000).
                        Polarization charges: spherical gaussians, with
                                              point-specific exponents (IZeta= 3).
                        Self-potential: point-specific (ISelfS= 7).
                        Self-field    : sphere-specific E.n sum rule (ISelfD= 2).
 1st derivatives      : Analytical E(r).r(x)/FMM algorithm (CHGder, D1EAlg=3).
                        Cavity 1st derivative terms included.
 Solvent              : Ethanol, Eps=  24.852000 Eps(inf)=   1.852593
 ------------------------------------------------------------------------------
 ------------------------------------------------------------------------------
 Atomic radii for non-electrostatic terms: SMD-CDS.
 ------------------------------------------------------------------------------
 Nuclear repulsion after PCM non-electrostatic terms =     2795.3015257999 Hartrees.
 One-electron integrals computed using PRISM.
 NBasis=   616 RedAO= T EigKep=  1.53D-06  NBF=   616
 NBsUse=   611 1.00D-06 EigRej=  9.00D-07 NBFU=   611
 ExpMin= 4.38D-02 ExpMax= 5.48D+03 ExpMxC= 8.25D+02 IAcc=3 IRadAn=         5 AccDes= 0.00D+00
 Harris functional with IExCor= 1009 and IRadAn=       5 diagonalized for initial guess.
 HarFok:  IExCor= 1009 AccDes= 0.00D+00 IRadAn=         5 IDoV= 1 UseB2=F ITyADJ=14
 ICtDFT=  3500011 ScaDFX=  1.000000  1.000000  1.000000  1.000000
 FoFCou: FMM=F IPFlag=           0 FMFlag=      100000 FMFlg1=           0
         NFxFlg=           0 DoJE=T BraDBF=F KetDBF=T FulRan=T
         wScrn=  0.000000 ICntrl=       500 IOpCl=  0 I1Cent=   200000004 NGrid=           0
         NMat0=    1 NMatS0=      1 NMatT0=    0 NMatD0=    1 NMtDS0=    0 NMtDT0=    0
 Petite list used in FoFCou.
 Requested convergence on RMS density matrix=1.00D-08 within  32 cycles.
 Requested convergence on MAX density matrix=1.00D-06.
 Requested convergence on             energy=1.00D-06.
 No special actions if energy rises.
 Inv3:  Mode=1 IEnd=    29824227.
 Iteration    1 A*A^-1 deviation from unit magnitude is 6.77D-15 for   3140.
 Iteration    1 A*A^-1 deviation from orthogonality  is 3.50D-15 for   1604    362.
 Iteration    1 A^-1*A deviation from unit magnitude is 6.77D-15 for   3140.
 Iteration    1 A^-1*A deviation from orthogonality  is 2.75D-15 for   3150   1993.
 Error on total polarization charges =  0.06098
 SCF Done:  E(RM052X) =  -1418.43875283     A.U. after   17 cycles
            NFock= 17  Conv=0.81D-08     -V/T= 2.0091
 SMD-CDS (non-electrostatic) energy       (kcal/mol) =       6.19
 (included in total energy above)
 QCSCF skips out because SCF is already converged.

 **********************************************************************

            Population analysis using the SCF density.

 **********************************************************************

 Orbital symmetries:
       Occupied  (A) (A) (A) (A) (A) (A) (A) (A) (A) (A) (A) (A)
                 (A) (A) (A) (A) (A) (A) (A) (A) (A) (A) (A) (A)
                 (A) (A) (A) (A) (A) (A) (A) (A) (A) (A) (A) (A)
                 (A) (A) (A) (A) (A) (A) (A) (A) (A) (A) (A) (A)
                 (A) (A) (A) (A) (A) (A) (A) (A) (A) (A) (A) (A)
                 (A) (A) (A) (A) (A) (A) (A) (A) (A) (A) (A) (A)
                 (A) (A) (A) (A) (A) (A) (A) (A) (A) (A) (A) (A)
                 (A) (A) (A) (A) (A) (A) (A) (A) (A) (A) (A) (A)
                 (A) (A) (A) (A) (A) (A)
       Virtual   (A) (A) (A) (A) (A) (A) (A) (A) (A) (A) (A) (A)
                 (A) (A) (A) (A) (A) (A) (A) (A) (A) (A) (A) (A)
                 (A) (A) (A) (A) (A) (A) (A) (A) (A) (A) (A) (A)
                 (A) (A) (A) (A) (A) (A) (A) (A) (A) (A) (A) (A)
                 (A) (A) (A) (A) (A) (A) (A) (A) (A) (A) (A) (A)
                 (A) (A) (A) (A) (A) (A) (A) (A) (A) (A) (A) (A)
                 (A) (A) (A) (A) (A) (A) (A) (A) (A) (A) (A) (A)
                 (A) (A) (A) (A) (A) (A) (A) (A) (A) (A) (A) (A)
                 (A) (A) (A) (A) (A) (A) (A) (A) (A) (A) (A) (A)
                 (A) (A) (A) (A) (A) (A) (A) (A) (A) (A) (A) (A)
                 (A) (A) (A) (A) (A) (A) (A) (A) (A) (A) (A) (A)
                 (A) (A) (A) (A) (A) (A) (A) (A) (A) (A) (A) (A)
                 (A) (A) (A) (A) (A) (A) (A) (A) (A) (A) (A) (A)
                 (A) (A) (A) (A) (A) (A) (A) (A) (A) (A) (A) (A)
                 (A) (A) (A) (A) (A) (A) (A) (A) (A) (A) (A) (A)
                 (A) (A) (A) (A) (A) (A) (A) (A) (A) (A) (A) (A)
                 (A) (A) (A) (A) (A) (A) (A) (A) (A) (A) (A) (A)
                 (A) (A) (A) (A) (A) (A) (A) (A) (A) (A) (A) (A)
                 (A) (A) (A) (A) (A) (A) (A) (A) (A) (A) (A) (A)
                 (A) (A) (A) (A) (A) (A) (A) (A) (A) (A) (A) (A)
                 (A) (A) (A) (A) (A) (A) (A) (A) (A) (A) (A) (A)
                 (A) (A) (A) (A) (A) (A) (A) (A) (A) (A) (A) (A)
                 (A) (A) (A) (A) (A) (A) (A) (A) (A) (A) (A) (A)
                 (A) (A) (A) (A) (A) (A) (A) (A) (A) (A) (A) (A)
                 (A) (A) (A) (A) (A) (A) (A) (A) (A) (A) (A) (A)
                 (A) (A) (A) (A) (A) (A) (A) (A) (A) (A) (A) (A)
                 (A) (A) (A) (A) (A) (A) (A) (A) (A) (A) (A) (A)
                 (A) (A) (A) (A) (A) (A) (A) (A) (A) (A) (A) (A)
                 (A) (A) (A) (A) (A) (A) (A) (A) (A) (A) (A) (A)
                 (A) (A) (A) (A) (A) (A) (A) (A) (A) (A) (A) (A)
                 (A) (A) (A) (A) (A) (A) (A) (A) (A) (A) (A) (A)
                 (A) (A) (A) (A) (A) (A) (A) (A) (A) (A) (A) (A)
                 (A) (A) (A) (A) (A) (A) (A) (A) (A) (A) (A) (A)
                 (A) (A) (A) (A) (A) (A) (A) (A) (A) (A) (A) (A)
                 (A) (A) (A) (A) (A) (A) (A) (A) (A) (A) (A) (A)
                 (A) (A) (A) (A) (A) (A) (A) (A) (A) (A) (A) (A)
                 (A) (A) (A) (A) (A) (A) (A) (A) (A) (A) (A) (A)
                 (A) (A) (A) (A) (A) (A) (A) (A) (A) (A) (A) (A)
                 (A) (A) (A) (A) (A) (A) (A) (A) (A) (A) (A) (A)
                 (A) (A) (A) (A) (A) (A) (A) (A) (A) (A) (A) (A)
                 (A) (A) (A) (A) (A) (A) (A) (A) (A) (A) (A) (A)
                 (A) (A) (A) (A) (A) (A) (A) (A) (A) (A) (A) (A)
                 (A) (A) (A) (A) (A)
 The electronic state is 1-A.
 Alpha  occ. eigenvalues --  -19.75961 -19.75889 -19.75807 -19.75593 -19.75208
 Alpha  occ. eigenvalues --  -19.75175 -15.08945 -15.08744 -15.08340 -14.89867
 Alpha  occ. eigenvalues --  -14.88625 -10.71383 -10.68192 -10.68146 -10.66965
 Alpha  occ. eigenvalues --  -10.65423 -10.65254 -10.63906 -10.63688 -10.59282
 Alpha  occ. eigenvalues --  -10.59092 -10.59040 -10.58966 -10.58780 -10.58751
 Alpha  occ. eigenvalues --  -10.58678 -10.58649 -10.58615 -10.58110  -1.40934
 Alpha  occ. eigenvalues --   -1.40890  -1.40337  -1.21823  -1.21627  -1.21043
 Alpha  occ. eigenvalues --   -1.19085  -1.07089  -1.02098  -0.98486  -0.98137
 Alpha  occ. eigenvalues --   -0.97010  -0.94521  -0.87637  -0.86607  -0.86094
 Alpha  occ. eigenvalues --   -0.85820  -0.84462  -0.84071  -0.81015  -0.74236
 Alpha  occ. eigenvalues --   -0.73295  -0.72338  -0.71178  -0.70121  -0.69615
 Alpha  occ. eigenvalues --   -0.68782  -0.67608  -0.66633  -0.66160  -0.65767
 Alpha  occ. eigenvalues --   -0.65330  -0.64989  -0.64288  -0.63917  -0.63226
 Alpha  occ. eigenvalues --   -0.62713  -0.62445  -0.58678  -0.57282  -0.56568
 Alpha  occ. eigenvalues --   -0.55208  -0.53959  -0.53012  -0.52534  -0.51650
 Alpha  occ. eigenvalues --   -0.50873  -0.50588  -0.50071  -0.49766  -0.47322
 Alpha  occ. eigenvalues --   -0.45436  -0.44280  -0.43857  -0.43681  -0.42801
 Alpha  occ. eigenvalues --   -0.42522  -0.42484  -0.42353  -0.42063  -0.41585
 Alpha  occ. eigenvalues --   -0.41330  -0.41239  -0.41097  -0.40999  -0.40737
 Alpha  occ. eigenvalues --   -0.39089  -0.36913  -0.32448  -0.32076  -0.31938
 Alpha  occ. eigenvalues --   -0.31372  -0.26547
 Alpha virt. eigenvalues --   -0.08155  -0.07630  -0.05694   0.00224   0.00968
 Alpha virt. eigenvalues --    0.01466   0.02683   0.03006   0.03725   0.04244
 Alpha virt. eigenvalues --    0.05459   0.06073   0.06236   0.07176   0.07419
 Alpha virt. eigenvalues --    0.07796   0.08025   0.08397   0.08883   0.09175
 Alpha virt. eigenvalues --    0.09304   0.09849   0.10267   0.11164   0.11566
 Alpha virt. eigenvalues --    0.11912   0.12416   0.12820   0.13317   0.13437
 Alpha virt. eigenvalues --    0.13996   0.14347   0.14496   0.14904   0.15253
 Alpha virt. eigenvalues --    0.15570   0.15681   0.15866   0.16332   0.16904
 Alpha virt. eigenvalues --    0.17180   0.17406   0.17602   0.18044   0.18234
 Alpha virt. eigenvalues --    0.18415   0.18879   0.19114   0.19197   0.19764
 Alpha virt. eigenvalues --    0.19907   0.19981   0.20170   0.20569   0.20896
 Alpha virt. eigenvalues --    0.21219   0.21344   0.21485   0.22350   0.22521
 Alpha virt. eigenvalues --    0.22941   0.23022   0.23390   0.23481   0.23820
 Alpha virt. eigenvalues --    0.24014   0.24461   0.24675   0.24818   0.25199
 Alpha virt. eigenvalues --    0.25262   0.25589   0.25793   0.26360   0.26571
 Alpha virt. eigenvalues --    0.27033   0.27138   0.27418   0.27579   0.27764
 Alpha virt. eigenvalues --    0.27977   0.28165   0.28440   0.28512   0.29267
 Alpha virt. eigenvalues --    0.29406   0.29651   0.29767   0.30267   0.30421
 Alpha virt. eigenvalues --    0.30680   0.30896   0.31078   0.31425   0.31897
 Alpha virt. eigenvalues --    0.31979   0.32417   0.32813   0.32969   0.33383
 Alpha virt. eigenvalues --    0.33707   0.33944   0.34176   0.34322   0.34432
 Alpha virt. eigenvalues --    0.34829   0.35155   0.35273   0.35686   0.36063
 Alpha virt. eigenvalues --    0.36513   0.36953   0.37143   0.37555   0.37723
 Alpha virt. eigenvalues --    0.37881   0.38013   0.38527   0.39327   0.39475
 Alpha virt. eigenvalues --    0.39588   0.40044   0.40156   0.40761   0.40804
 Alpha virt. eigenvalues --    0.41312   0.41394   0.41710   0.41873   0.42069
 Alpha virt. eigenvalues --    0.42809   0.43086   0.43496   0.44038   0.44284
 Alpha virt. eigenvalues --    0.44707   0.45233   0.45357   0.45596   0.45937
 Alpha virt. eigenvalues --    0.47359   0.47535   0.47919   0.48241   0.48711
 Alpha virt. eigenvalues --    0.48963   0.49416   0.49511   0.50480   0.50826
 Alpha virt. eigenvalues --    0.51191   0.52127   0.53057   0.53710   0.54734
 Alpha virt. eigenvalues --    0.55705   0.56317   0.57047   0.58384   0.59575
 Alpha virt. eigenvalues --    0.61041   0.63323   0.64877   0.65854   0.66629
 Alpha virt. eigenvalues --    0.69759   0.70203   0.71902   0.73313   0.74071
 Alpha virt. eigenvalues --    0.74982   0.75761   0.76227   0.76579   0.76929
 Alpha virt. eigenvalues --    0.77584   0.79239   0.80245   0.80326   0.81190
 Alpha virt. eigenvalues --    0.81837   0.82162   0.82654   0.83074   0.83693
 Alpha virt. eigenvalues --    0.83881   0.84693   0.85379   0.85916   0.86642
 Alpha virt. eigenvalues --    0.87193   0.88514   0.89139   0.90110   0.90919
 Alpha virt. eigenvalues --    0.91170   0.91709   0.92998   0.93357   0.94170
 Alpha virt. eigenvalues --    0.95529   0.96341   0.96462   0.97296   0.97910
 Alpha virt. eigenvalues --    0.98357   0.99033   0.99600   1.00767   1.01188
 Alpha virt. eigenvalues --    1.01646   1.02264   1.02339   1.02827   1.04582
 Alpha virt. eigenvalues --    1.05882   1.06277   1.07098   1.07485   1.08361
 Alpha virt. eigenvalues --    1.08938   1.09185   1.09634   1.10924   1.11156
 Alpha virt. eigenvalues --    1.12022   1.13091   1.13567   1.14457   1.15237
 Alpha virt. eigenvalues --    1.16040   1.16956   1.17075   1.17728   1.18440
 Alpha virt. eigenvalues --    1.20396   1.20600   1.21342   1.21720   1.22470
 Alpha virt. eigenvalues --    1.23163   1.23721   1.24596   1.25039   1.25703
 Alpha virt. eigenvalues --    1.25911   1.26725   1.26969   1.27288   1.27767
 Alpha virt. eigenvalues --    1.28712   1.28835   1.29992   1.31337   1.31796
 Alpha virt. eigenvalues --    1.32152   1.33609   1.33678   1.34680   1.35505
 Alpha virt. eigenvalues --    1.35859   1.36570   1.37139   1.37202   1.37691
 Alpha virt. eigenvalues --    1.38456   1.38804   1.39587   1.40342   1.41170
 Alpha virt. eigenvalues --    1.41450   1.41934   1.42363   1.43330   1.43891
 Alpha virt. eigenvalues --    1.44161   1.44531   1.45468   1.46087   1.46687
 Alpha virt. eigenvalues --    1.47364   1.47932   1.48079   1.48491   1.48778
 Alpha virt. eigenvalues --    1.49410   1.49641   1.49997   1.50613   1.50972
 Alpha virt. eigenvalues --    1.52175   1.53612   1.53973   1.54938   1.55605
 Alpha virt. eigenvalues --    1.56498   1.57918   1.59282   1.60496   1.61011
 Alpha virt. eigenvalues --    1.64537   1.64855   1.66259   1.69455   1.70265
 Alpha virt. eigenvalues --    1.72064   1.73323   1.75338   1.75650   1.76274
 Alpha virt. eigenvalues --    1.78074   1.79534   1.80673   1.81318   1.81901
 Alpha virt. eigenvalues --    1.83436   1.84167   1.84805   1.86011   1.86677
 Alpha virt. eigenvalues --    1.88295   1.88535   1.89488   1.90445   1.91243
 Alpha virt. eigenvalues --    1.91977   1.92737   1.93244   1.93529   1.94477
 Alpha virt. eigenvalues --    1.95013   1.95524   1.97398   1.97640   1.97763
 Alpha virt. eigenvalues --    1.98112   1.99521   1.99766   2.00229   2.01009
 Alpha virt. eigenvalues --    2.01345   2.02300   2.03086   2.03567   2.04297
 Alpha virt. eigenvalues --    2.04472   2.05222   2.06365   2.06811   2.07802
 Alpha virt. eigenvalues --    2.08342   2.08567   2.09635   2.10038   2.10537
 Alpha virt. eigenvalues --    2.10967   2.11400   2.12333   2.13037   2.13535
 Alpha virt. eigenvalues --    2.14400   2.15770   2.16005   2.17411   2.17986
 Alpha virt. eigenvalues --    2.18666   2.20127   2.20544   2.22935   2.23644
 Alpha virt. eigenvalues --    2.24805   2.26078   2.26815   2.28411   2.30210
 Alpha virt. eigenvalues --    2.32004   2.33397   2.34684   2.35399   2.36341
 Alpha virt. eigenvalues --    2.37010   2.37680   2.39090   2.41247   2.42070
 Alpha virt. eigenvalues --    2.43353   2.44874   2.44907   2.45167   2.46065
 Alpha virt. eigenvalues --    2.46302   2.46931   2.47351   2.48455   2.49133
 Alpha virt. eigenvalues --    2.49273   2.51050   2.51436   2.53216   2.53937
 Alpha virt. eigenvalues --    2.54720   2.55319   2.56491   2.57213   2.58566
 Alpha virt. eigenvalues --    2.59535   2.59855   2.60555   2.60969   2.62452
 Alpha virt. eigenvalues --    2.62909   2.63680   2.64517   2.65003   2.66039
 Alpha virt. eigenvalues --    2.66748   2.67495   2.68458   2.68948   2.69302
 Alpha virt. eigenvalues --    2.69878   2.70342   2.71366   2.72111   2.73332
 Alpha virt. eigenvalues --    2.74547   2.76701   2.76964   2.77468   2.78483
 Alpha virt. eigenvalues --    2.78972   2.79827   2.81531   2.83980   2.84326
 Alpha virt. eigenvalues --    2.85576   2.86769   2.88347   2.88704   2.89313
 Alpha virt. eigenvalues --    2.91829   2.94645   2.97238   2.99391   3.03250
 Alpha virt. eigenvalues --    3.04844   3.05694   3.06322   3.08845   3.10733
 Alpha virt. eigenvalues --    3.10899   3.12125   3.12683   3.13694   3.14736
 Alpha virt. eigenvalues --    3.15048   3.16228   3.18021   3.19483   3.22970
 Alpha virt. eigenvalues --    3.23932   3.25284   3.26622   3.29360   3.32709
 Alpha virt. eigenvalues --    3.33136   3.34811   3.35614   3.39651   3.40734
 Alpha virt. eigenvalues --    3.43858   3.49527   3.51532   3.52384   3.59929
 Alpha virt. eigenvalues --    3.61238   3.63139   3.74632   3.96660   3.97914
 Alpha virt. eigenvalues --    4.15343   4.25083   4.31524   4.36676   4.36854
 Alpha virt. eigenvalues --    4.37629   4.40051   4.41460   4.42736   4.45779
 Alpha virt. eigenvalues --    4.48139   4.51088   4.52564   4.54178   4.56512
 Alpha virt. eigenvalues --    4.57479   4.58035   4.60404   4.62752   4.64519
 Alpha virt. eigenvalues --    4.70424   4.74012   4.80430   4.83936   4.85033
 Alpha virt. eigenvalues --    4.88696   4.92084   4.95143   4.97837
          Condensed to atoms (all electrons):
               1          2          3          4          5          6
     1  N   12.569142  -4.464114  -1.898613   0.543353   0.423086  -0.012250
     2  N   -4.464114  12.723979   1.449866  -0.763738  -0.282983   0.681616
     3  C   -1.898613   1.449866  16.014085  -2.449912  -0.928150   1.184509
     4  C    0.543353  -0.763738  -2.449912  14.135215   1.246295  -6.869535
     5  C    0.423086  -0.282983  -0.928150   1.246295  14.518515  -1.341633
     6  C   -0.012250   0.681616   1.184509  -6.869535  -1.341633  13.140485
     7  H   -0.028971   0.004817   0.036157   0.248679  -0.021475   0.036753
     8  C    0.360519  -0.140275  -2.837695  -2.070434  -7.672759   1.219733
     9  H   -0.052784   0.080944   0.130550  -0.039448   0.342123   0.000180
    10  C    0.124794  -0.206363  -1.383324   0.951489  -0.351200  -0.243732
    11  H   -0.000309   0.000541   0.023331  -0.016930  -0.006597   0.332056
    12  H   -0.001028   0.000839   0.018779   0.001331  -0.042078  -0.002147
    13  H    0.000574  -0.000396  -0.020041   0.036812  -0.004238  -0.008551
    14  C    0.646504  -1.730513  -0.439533   0.797606  -0.208180  -0.121757
    15  C    0.190455   1.121293   1.476886  -0.172726  -0.016867   0.111280
    16  C   -0.054417  -0.437442  -0.062290  -0.022084  -0.063586  -0.015254
    17  C    0.001059  -0.834383  -0.132796   0.157603  -0.204589  -0.008535
    18  C   -0.037914   0.198876   0.166889  -0.044299  -0.026186  -0.005975
    19  C   -0.246746   0.040292  -0.020210   0.030760  -0.019571   0.003017
    20  H    0.002132  -0.001148  -0.002226  -0.000173   0.001535   0.000008
    21  H    0.000215   0.000175  -0.000209  -0.000020   0.000313  -0.000001
    22  C   -2.403158  -0.827760  -3.785324   0.416010   0.304783  -2.812147
    23  C    1.008727   0.048389   0.987265  -0.569175  -0.128496   0.898913
    24  C    0.678850   0.104216   0.717974   0.301299  -0.128988   0.411009
    25  C   -0.074367  -0.205025  -0.670215  -0.162294   0.015979  -0.197246
    26  H    0.068605   0.012326   0.005687   0.037316   0.005721  -0.014484
    27  C   -0.261843   0.235860  -0.379106  -0.083527   0.089056   0.009154
    28  H   -0.037576   0.067456   0.004523  -0.003801   0.001491   0.004295
    29  C    0.141778   0.015250   0.103416   0.031781  -0.041552   0.081613
    30  H    0.001802   0.001033   0.000375  -0.000532  -0.000389   0.000562
    31  H   -0.001680   0.001533  -0.001306  -0.000484   0.000148  -0.000086
    32  H   -0.001288  -0.000319  -0.001362  -0.000477  -0.000016  -0.000091
    33  N    0.002104   0.002807  -0.001497  -0.000120   0.000986   0.000045
    34  O    0.000173   0.000273  -0.000060   0.000013   0.000163   0.000001
    35  O   -0.000349   0.000650  -0.000680  -0.000054   0.000441  -0.000001
    36  N   -0.251996   0.134155  -1.585785  -0.043674   0.355481   0.001938
    37  O   -0.223911   0.268503   0.530038  -0.033783  -0.076696   0.054668
    38  O    0.071711  -0.054223   0.146503  -0.022147  -0.027271  -0.014136
    39  O   -0.002032  -0.007459  -0.003194  -0.000489   0.001056  -0.000004
    40  O   -0.039521   0.024226   0.046604  -0.007538   0.005595   0.001281
    41  N   -0.070131   0.029975  -0.103676   0.004602  -0.013379   0.002752
    42  H    0.032088   0.240199  -0.031999   0.023366   0.025466  -0.000793
               7          8          9         10         11         12
     1  N   -0.028971   0.360519  -0.052784   0.124794  -0.000309  -0.001028
     2  N    0.004817  -0.140275   0.080944  -0.206363   0.000541   0.000839
     3  C    0.036157  -2.837695   0.130550  -1.383324   0.023331   0.018779
     4  C    0.248679  -2.070434  -0.039448   0.951489  -0.016930   0.001331
     5  C   -0.021475  -7.672759   0.342123  -0.351200  -0.006597  -0.042078
     6  C    0.036753   1.219733   0.000180  -0.243732   0.332056  -0.002147
     7  H    0.507293   0.015258  -0.000107  -0.008896  -0.005129   0.000012
     8  C    0.015258  16.931296  -0.103770   0.641110   0.001348   0.348472
     9  H   -0.000107  -0.103770   0.508478  -0.021365   0.000012  -0.005197
    10  C   -0.008896   0.641110  -0.021365   6.255270  -0.009406  -0.001083
    11  H   -0.005129   0.001348   0.000012  -0.009406   0.493856  -0.000130
    12  H    0.000012   0.348472  -0.005197  -0.001083  -0.000130   0.494032
    13  H   -0.000124  -0.024194  -0.000124   0.345970  -0.004206  -0.004160
    14  C   -0.008816  -1.073503  -0.051862   0.065213  -0.000182  -0.001164
    15  C    0.002478  -0.293819   0.032305  -0.023537   0.000061  -0.000176
    16  C    0.000589   0.016046   0.003479   0.000118   0.000027   0.000174
    17  C   -0.000480  -0.185228  -0.016359   0.003508  -0.000017  -0.000064
    18  C   -0.000037  -0.014037   0.007632  -0.000675   0.000002   0.000007
    19  C    0.000017  -0.026060  -0.002940   0.001218   0.000000   0.000001
    20  H   -0.000000   0.000184   0.000000  -0.000003   0.000000  -0.000000
    21  H    0.000000   0.000040   0.000000  -0.000000   0.000000   0.000000
    22  C   -0.001201   1.010020  -0.000316   0.024526   0.002088   0.003751
    23  C    0.021761   0.144235  -0.000182  -0.066522  -0.000906  -0.000540
    24  C   -0.006533  -0.316131  -0.001792   0.030330  -0.000226  -0.000172
    25  C    0.022072   0.070481  -0.000799  -0.033692   0.000072  -0.000009
    26  H   -0.001559  -0.005601   0.000002   0.002875  -0.000001  -0.000000
    27  C    0.001445   0.071809  -0.000683  -0.020551   0.000117   0.000009
    28  H    0.000014   0.002889   0.000000  -0.000623   0.000000  -0.000000
    29  C   -0.000926  -0.016955   0.000088   0.001113  -0.000088  -0.000003
    30  H   -0.000018   0.000038  -0.000000  -0.000197  -0.000000  -0.000000
    31  H   -0.000001   0.000027  -0.000000  -0.000002  -0.000000  -0.000000
    32  H   -0.000000  -0.000007   0.000000   0.000003   0.000000  -0.000000
    33  N    0.000000   0.000428   0.000007  -0.000022  -0.000000  -0.000000
    34  O   -0.000000   0.000021   0.000000  -0.000000   0.000000  -0.000000
    35  O   -0.000000   0.000044  -0.000000  -0.000000  -0.000000  -0.000000
    36  N   -0.003116   0.703965  -0.004432   0.015741  -0.000033  -0.000009
    37  O    0.000424  -0.268989   0.004222  -0.030885   0.000006  -0.000036
    38  O    0.000201  -0.016622   0.000294  -0.000273   0.000002   0.000005
    39  O    0.000000   0.001012  -0.000014  -0.000042  -0.000000   0.000000
    40  O    0.000005  -0.002927   0.000405  -0.000208   0.000000   0.000003
    41  N    0.000015   0.007440  -0.001257  -0.002598  -0.000000   0.000002
    42  H    0.000020  -0.007195  -0.000393   0.003729   0.000000   0.000000
              13         14         15         16         17         18
     1  N    0.000574   0.646504   0.190455  -0.054417   0.001059  -0.037914
     2  N   -0.000396  -1.730513   1.121293  -0.437442  -0.834383   0.198876
     3  C   -0.020041  -0.439533   1.476886  -0.062290  -0.132796   0.166889
     4  C    0.036812   0.797606  -0.172726  -0.022084   0.157603  -0.044299
     5  C   -0.004238  -0.208180  -0.016867  -0.063586  -0.204589  -0.026186
     6  C   -0.008551  -0.121757   0.111280  -0.015254  -0.008535  -0.005975
     7  H   -0.000124  -0.008816   0.002478   0.000589  -0.000480  -0.000037
     8  C   -0.024194  -1.073503  -0.293819   0.016046  -0.185228  -0.014037
     9  H   -0.000124  -0.051862   0.032305   0.003479  -0.016359   0.007632
    10  C    0.345970   0.065213  -0.023537   0.000118   0.003508  -0.000675
    11  H   -0.004206  -0.000182   0.000061   0.000027  -0.000017   0.000002
    12  H   -0.004160  -0.001164  -0.000176   0.000174  -0.000064   0.000007
    13  H    0.496312   0.000366  -0.000083  -0.000033   0.000021  -0.000002
    14  C    0.000366   9.646898  -3.887392   2.033442   2.415075  -1.287495
    15  C   -0.000083  -3.887392  23.023134  -6.216003  -5.146007   1.466179
    16  C   -0.000033   2.033442  -6.216003  16.317564   1.737123  -2.312705
    17  C    0.000021   2.415075  -5.146007   1.737123  15.545889  -7.744865
    18  C   -0.000002  -1.287495   1.466179  -2.312705  -7.744865  18.911271
    19  C    0.000001  -0.025796  -3.932367  -4.289610   0.311344  -4.614352
    20  H   -0.000000  -0.005692  -0.062315  -0.012095   0.106094   0.095366
    21  H   -0.000000   0.020532  -0.000575  -0.007775   0.080667   0.044215
    22  C   -0.000011  -0.622083  -2.480584   0.679095   0.215918   0.246380
    23  C   -0.000082  -0.338191   0.557843  -0.151797  -0.166374  -0.004224
    24  C    0.000074   0.601413   0.429044  -0.249316   0.094442  -0.164401
    25  C   -0.000031  -0.006987  -0.008859   0.055906  -0.008077  -0.007111
    26  H    0.000000   0.003914   0.013751  -0.001164  -0.004581   0.000659
    27  C    0.000009  -0.219190   0.040752  -0.002650  -0.075854   0.007930
    28  H   -0.000000  -0.051986   0.001755   0.024637  -0.003593  -0.003845
    29  C    0.000002   0.087862   0.065662  -0.041852   0.008559  -0.016224
    30  H    0.000000  -0.000412   0.000918   0.000073  -0.000206  -0.000026
    31  H    0.000000  -0.002738  -0.000092   0.001165  -0.000017   0.000090
    32  H   -0.000000   0.000243  -0.000292  -0.000079   0.000116   0.000036
    33  N   -0.000000  -0.023901   0.008030   0.262891   0.253656   0.418946
    34  O   -0.000000   0.024018   0.063689  -0.042173   0.244790  -0.161222
    35  O    0.000000  -0.008115   0.094217  -0.019744  -0.084665   0.241399
    36  N    0.000058   0.029019  -2.044334   0.172158   0.216025  -0.169510
    37  O   -0.000038  -0.006555   0.278782  -0.035424  -0.037006   0.037289
    38  O   -0.000001  -0.030854   0.211291   0.005675  -0.072268  -0.019848
    39  O    0.000000  -0.017232  -0.042530  -0.119802   0.008530   0.010261
    40  O   -0.000000  -0.068636   0.157729  -0.226184  -0.078734   0.193448
    41  N    0.000000  -0.039940   0.025768  -0.876989   0.035187   0.110232
    42  H    0.000000   0.008424   0.005985  -0.015453  -0.001653   0.003981
              19         20         21         22         23         24
     1  N   -0.246746   0.002132   0.000215  -2.403158   1.008727   0.678850
     2  N    0.040292  -0.001148   0.000175  -0.827760   0.048389   0.104216
     3  C   -0.020210  -0.002226  -0.000209  -3.785324   0.987265   0.717974
     4  C    0.030760  -0.000173  -0.000020   0.416010  -0.569175   0.301299
     5  C   -0.019571   0.001535   0.000313   0.304783  -0.128496  -0.128988
     6  C    0.003017   0.000008  -0.000001  -2.812147   0.898913   0.411009
     7  H    0.000017  -0.000000   0.000000  -0.001201   0.021761  -0.006533
     8  C   -0.026060   0.000184   0.000040   1.010020   0.144235  -0.316131
     9  H   -0.002940   0.000000   0.000000  -0.000316  -0.000182  -0.001792
    10  C    0.001218  -0.000003  -0.000000   0.024526  -0.066522   0.030330
    11  H    0.000000   0.000000   0.000000   0.002088  -0.000906  -0.000226
    12  H    0.000001  -0.000000   0.000000   0.003751  -0.000540  -0.000172
    13  H    0.000001  -0.000000  -0.000000  -0.000011  -0.000082   0.000074
    14  C   -0.025796  -0.005692   0.020532  -0.622083  -0.338191   0.601413
    15  C   -3.932367  -0.062315  -0.000575  -2.480584   0.557843   0.429044
    16  C   -4.289610  -0.012095  -0.007775   0.679095  -0.151797  -0.249316
    17  C    0.311344   0.106094   0.080667   0.215918  -0.166374   0.094442
    18  C   -4.614352   0.095366   0.044215   0.246380  -0.004224  -0.164401
    19  C   20.251361   0.232628   0.239877  -0.086889  -0.026086   0.069375
    20  H    0.232628   0.419700  -0.000079   0.000363   0.002204  -0.001559
    21  H    0.239877  -0.000079   0.420775  -0.000028   0.000005   0.000253
    22  C   -0.086889   0.000363  -0.000028  28.874071  -7.231675  -7.351429
    23  C   -0.026086   0.002204   0.000005  -7.231675  12.097318   2.738786
    24  C    0.069375  -0.001559   0.000253  -7.351429   2.738786  10.134476
    25  C   -0.006441   0.000417  -0.000010   2.559936  -3.632415  -1.626021
    26  H   -0.000939   0.000000  -0.000000  -0.125567   0.344757   0.015847
    27  C   -0.006357   0.000261   0.000331   1.889154  -1.541461  -1.856722
    28  H    0.002012   0.000000   0.000001   0.020387  -0.006235   0.235979
    29  C   -0.001210   0.000042   0.000028  -2.517987   1.045320   0.876296
    30  H    0.000004  -0.000000   0.000000   0.013298  -0.000129  -0.011142
    31  H   -0.000152   0.000000   0.000000   0.036283  -0.014676   0.023045
    32  H    0.000026   0.000000  -0.000000  -0.010584  -0.022048   0.023254
    33  N   -1.433754  -0.047387  -0.043220   0.001068   0.000517  -0.000839
    34  O   -0.192433  -0.002201   0.017395  -0.001029   0.000060   0.000609
    35  O   -0.290506   0.018879  -0.002210   0.002191   0.000094  -0.001020
    36  N    0.158162  -0.009190   0.000286   0.938981   0.014387  -0.111739
    37  O   -0.006004  -0.003173  -0.000026  -0.425636   0.081174   0.079071
    38  O    0.054896   0.008510  -0.000002  -0.134059   0.067346  -0.000449
    39  O    0.120024  -0.000001   0.014790   0.009066   0.000389   0.002484
    40  O   -0.003622   0.000010  -0.001800  -0.048847  -0.001103  -0.010533
    41  N    0.194865  -0.000201  -0.043698   0.132322  -0.017888  -0.017641
    42  H    0.004390   0.000001  -0.000001  -0.043162   0.005133   0.003269
              25         26         27         28         29         30
     1  N   -0.074367   0.068605  -0.261843  -0.037576   0.141778   0.001802
     2  N   -0.205025   0.012326   0.235860   0.067456   0.015250   0.001033
     3  C   -0.670215   0.005687  -0.379106   0.004523   0.103416   0.000375
     4  C   -0.162294   0.037316  -0.083527  -0.003801   0.031781  -0.000532
     5  C    0.015979   0.005721   0.089056   0.001491  -0.041552  -0.000389
     6  C   -0.197246  -0.014484   0.009154   0.004295   0.081613   0.000562
     7  H    0.022072  -0.001559   0.001445   0.000014  -0.000926  -0.000018
     8  C    0.070481  -0.005601   0.071809   0.002889  -0.016955   0.000038
     9  H   -0.000799   0.000002  -0.000683   0.000000   0.000088  -0.000000
    10  C   -0.033692   0.002875  -0.020551  -0.000623   0.001113  -0.000197
    11  H    0.000072  -0.000001   0.000117   0.000000  -0.000088  -0.000000
    12  H   -0.000009  -0.000000   0.000009  -0.000000  -0.000003  -0.000000
    13  H   -0.000031   0.000000   0.000009  -0.000000   0.000002   0.000000
    14  C   -0.006987   0.003914  -0.219190  -0.051986   0.087862  -0.000412
    15  C   -0.008859   0.013751   0.040752   0.001755   0.065662   0.000918
    16  C    0.055906  -0.001164  -0.002650   0.024637  -0.041852   0.000073
    17  C   -0.008077  -0.004581  -0.075854  -0.003593   0.008559  -0.000206
    18  C   -0.007111   0.000659   0.007930  -0.003845  -0.016224  -0.000026
    19  C   -0.006441  -0.000939  -0.006357   0.002012  -0.001210   0.000004
    20  H    0.000417   0.000000   0.000261   0.000000   0.000042  -0.000000
    21  H   -0.000010  -0.000000   0.000331   0.000001   0.000028   0.000000
    22  C    2.559936  -0.125567   1.889154   0.020387  -2.517987   0.013298
    23  C   -3.632415   0.344757  -1.541461  -0.006235   1.045320  -0.000129
    24  C   -1.626021   0.015847  -1.856722   0.235979   0.876296  -0.011142
    25  C    9.351872  -0.031072   0.830317  -0.008994  -0.044512   0.337996
    26  H   -0.031072   0.496634  -0.006266  -0.000111  -0.009970  -0.004573
    27  C    0.830317  -0.006266   7.387137   0.063900  -0.211371   0.003687
    28  H   -0.008994  -0.000111   0.063900   0.499073   0.002110   0.000012
    29  C   -0.044512  -0.009970  -0.211371   0.002110   6.297259  -0.020234
    30  H    0.337996  -0.004573   0.003687   0.000012  -0.020234   0.490304
    31  H    0.005916   0.000012   0.308305  -0.004954  -0.029107  -0.000129
    32  H   -0.003558  -0.000125   0.017520  -0.000122   0.326320  -0.004197
    33  N   -0.000382   0.000004   0.001440  -0.000008   0.000198   0.000000
    34  O   -0.000046   0.000000   0.000299   0.000001   0.000075   0.000000
    35  O   -0.000011  -0.000000  -0.000021   0.000000  -0.000072  -0.000000
    36  N   -0.165739  -0.010891   0.026964   0.000415   0.004004  -0.000253
    37  O   -0.005505   0.001905  -0.005897   0.000047   0.007722   0.000012
    38  O    0.001554   0.007384   0.002437   0.000028  -0.004523   0.000156
    39  O   -0.000433  -0.000000  -0.006809   0.000101   0.000339  -0.000000
    40  O    0.000258   0.000000   0.026395   0.001963  -0.002956  -0.000000
    41  N    0.003557   0.000005  -0.002111  -0.008354   0.001391   0.000000
    42  H    0.005422  -0.000005  -0.004023  -0.002298  -0.001464  -0.000000
              31         32         33         34         35         36
     1  N   -0.001680  -0.001288   0.002104   0.000173  -0.000349  -0.251996
     2  N    0.001533  -0.000319   0.002807   0.000273   0.000650   0.134155
     3  C   -0.001306  -0.001362  -0.001497  -0.000060  -0.000680  -1.585785
     4  C   -0.000484  -0.000477  -0.000120   0.000013  -0.000054  -0.043674
     5  C    0.000148  -0.000016   0.000986   0.000163   0.000441   0.355481
     6  C   -0.000086  -0.000091   0.000045   0.000001  -0.000001   0.001938
     7  H   -0.000001  -0.000000   0.000000  -0.000000  -0.000000  -0.003116
     8  C    0.000027  -0.000007   0.000428   0.000021   0.000044   0.703965
     9  H   -0.000000   0.000000   0.000007   0.000000  -0.000000  -0.004432
    10  C   -0.000002   0.000003  -0.000022  -0.000000  -0.000000   0.015741
    11  H   -0.000000   0.000000  -0.000000   0.000000  -0.000000  -0.000033
    12  H   -0.000000  -0.000000  -0.000000  -0.000000  -0.000000  -0.000009
    13  H    0.000000  -0.000000  -0.000000  -0.000000   0.000000   0.000058
    14  C   -0.002738   0.000243  -0.023901   0.024018  -0.008115   0.029019
    15  C   -0.000092  -0.000292   0.008030   0.063689   0.094217  -2.044334
[...]
 0001033,0.00001620,0.00004435,0.00001844,0.00003697,-0.00000415,0.0000
 2404,-0.00748408,-0.00067156,0.00133438,-0.02071409,0.03913281,-0.0159
 7806,0.00186306,-0.00078517,-0.00178250,0.00396678,0.00348092,-0.00256
 435,-0.00210016,-0.00036606,0.00107486,-0.00215902,-0.00073324,-0.0023
 8453,-0.00064988,0.00045111,0.00038191,0.00012767,-0.00004774,0.000160
 08,0.00019434,0.00104081,0.00025683,0.00050082,-0.00054615,-0.00038609
 ,-0.00004866,-0.00020973,-0.00000759,-0.00000085,0.00003178,0.00010393
 ,0.00066006,-0.00035981,-0.00055830,-0.00003228,-0.00002708,-0.0000181
 8,-0.00000184,0.00004001,0.00007371,-0.00004808,-0.00007945,-0.0000666
 5,0.00003517,-0.00005108,-0.00001802,-0.00000096,-0.00002598,-0.000017
 41,0.00000569,-0.00001930,-0.00000492,0.00222639,0.00055068,-0.0017254
 5,-0.00149346,0.00002596,0.00001898,-0.00066031,-0.00046648,0.00086869
 ,-0.06973828,0.20999645,-0.23858369,0.01633361,0.02196152,0.03698668,0
 .07633205,-0.27429294,0.22454107,-0.00095239,0.00132860,-0.00088093,-0
 .00359235,-0.00062515,-0.00165234,0.00146630,0.00121223,-0.00015698,-0
 .00031782,-0.00017810,-0.00008236,-0.00024488,-0.00039153,-0.00006241,
 -0.00003761,-0.00002180,0.00000183,0.00002626,0.00000821,0.00000855,0.
 00010832,0.00014351,-0.00006262,-0.00002785,0.00015251,0.00017174,-0.0
 0028196,-0.00004650,-0.00003245,-0.00005971,-0.00000420,0.00000374,-0.
 00002047,-0.00004254,-0.00000959,-0.00003474,-0.00001081,0.00001838,0.
 00426186,-0.00017819,0.00106272,-0.00124062,-0.00122358,0.00207329,0.0
 0319392,0.01113070,-0.04051189,0.00425217,-0.00030541,0.00143070,-0.01
 302260,-0.00643341,0.01208974,0.00181389,0.00307291,-0.00708054,0.0002
 0306,0.00010430,0.00021890,0.00266041,-0.00060915,0.00295484,-0.000745
 72,-0.00155292,-0.00036694,-0.00004642,0.00033808,0.00022663,0.0001978
 9,0.00026409,0.00017793,0.00002063,0.00004983,-0.00007598,-0.00000006,
 -0.00003327,0.00002560,0.00003482,-0.00001553,-0.00004046,-0.00001804,
 -0.00016809,-0.00016020,-0.00000334,0.00018602,0.00004070,0.00000182,0
 .00006208,-0.00000045,-0.00000735,0.00005512,0.00004315,-0.00000813,0.
 00003211,0.00000139,-0.00361292,-0.00021689,0.00016421,0.00122974,-0.0
 0025407,0.00072585,0.00092333,0.00042029,-0.00078466,0.00067632,-0.000
 31543,0.00110303,-0.00024477,-0.00000174,-0.00049720,-0.00034744,0.000
 42043,-0.00062172,0.51981140,-0.00039801,-0.00026470,-0.00128975,0.001
 11234,0.00101538,-0.00010681,-0.00006915,-0.00008709,-0.00003954,-0.00
 000251,0.00002601,0.00001314,0.00004196,0.00006988,0.00005502,0.000033
 34,0.00002126,0.00000371,-0.00000734,-0.00000163,-0.00000344,-0.000030
 34,-0.00000652,-0.00002261,0.00001564,-0.00004189,-0.00002101,0.000037
 36,-0.00002666,0.00000496,0.00000649,0.00000130,0.00000139,0.00000364,
 0.00000507,0.00000571,0.00000546,-0.00000009,-0.00000203,-0.00374076,0
 .00289689,0.00311750,0.00055783,-0.00093739,-0.00046070,0.01006596,0.0
 1541902,0.01917000,-0.00078785,-0.00020485,0.00039902,0.00071836,0.000
 61234,0.00258007,0.00104652,-0.00104285,0.00095104,0.00005483,0.000040
 34,-0.00003845,0.00038287,0.00036945,0.00203811,0.00018984,-0.00001936
 ,0.00011570,-0.00000488,-0.00003999,-0.00007148,0.00001662,-0.00004844
 ,0.00006539,-0.00000040,-0.00001315,0.00001630,0.00000072,0.00000220,-
 0.00000142,0.00002036,0.00002243,-0.00001919,-0.00001939,-0.00002727,-
 0.00000384,-0.00000309,-0.00001493,0.00000798,-0.00000318,-0.00001044,
 0.00000012,-0.00000996,-0.00000276,-0.00000014,-0.00000506,-0.00000286
 ,-0.00000057,0.00099591,0.00006058,-0.00032063,-0.00047952,-0.00002574
 ,0.00003239,-0.00040034,-0.00011432,0.00036092,-0.00054416,-0.00012534
 ,-0.00044461,0.00025725,0.00008307,0.00021561,0.00026680,-0.00012448,0
 .00036517,0.02494384,0.05140939,-0.00140844,0.00103036,-0.00009491,-0.
 00555309,-0.00341427,0.00139223,0.00169822,0.00153656,-0.00024645,-0.0
 0039039,-0.00023255,-0.00008938,-0.00031378,-0.00054562,-0.00005574,-0
 .00006730,-0.00002402,-0.00000353,0.00003409,0.00001274,0.00000172,0.0
 0013465,0.00017935,-0.00008795,-0.00006701,0.00021813,0.00017298,-0.00
 035046,-0.00004813,-0.00002609,-0.00007265,-0.00000705,-0.00000020,-0.
 00002810,-0.00005178,-0.00002114,-0.00004167,-0.00001142,0.00002126,0.
 01434044,0.00393249,-0.00362000,-0.00314541,-0.00154537,0.00082611,-0.
 04132509,0.02092662,-0.05718087,0.00422141,0.00061300,-0.00031060,-0.0
 0862023,-0.00326453,0.00162529,-0.00157535,0.00259350,-0.00727849,-0.0
 0006446,0.00005912,0.00020378,0.00000369,0.00170684,-0.00484324,-0.000
 94396,-0.00192643,-0.00032747,-0.00006908,0.00039695,0.00026373,0.0001
 5419,0.00032287,0.00015605,0.00004042,0.00003362,-0.00009840,0.0000053
 5,-0.00003824,0.00003875,0.00005391,-0.00000332,-0.00002501,-0.0000211
 3,-0.00013909,-0.00021005,-0.00000302,0.00021275,0.00007243,0.00000429
 ,0.00007222,-0.00000038,-0.00000089,0.00007598,0.00004736,-0.00000405,
 0.00003585,0.00000240,-0.00497866,-0.00108456,0.00109187,0.00218846,0.
 00003895,0.00035868,0.00153557,0.00086799,-0.00148568,0.00236558,0.000
 03298,0.00173508,-0.00084716,-0.00030926,-0.00093205,-0.00101942,0.000
 85976,-0.00139207,0.28255591,-0.03515415,0.32291697,0.00006974,-0.0000
 5466,-0.00378838,0.00050219,0.01044565,-0.01242751,0.00043922,0.000187
 31,0.00046950,-0.00027135,0.00006109,-0.00003009,0.00017845,0.00015571
 ,0.00009197,0.00014294,0.00019334,0.00006327,-0.00000706,-0.00001179,0
 .00000773,-0.00006102,-0.00008668,0.00007117,0.00012873,-0.00007333,-0
 .00008148,0.00012786,-0.00011943,-0.00001582,0.00000979,0.00000189,0.0
 0000523,0.00000861,0.00001188,0.00001729,0.00001158,0.00000194,-0.0000
 2592,-0.01666209,-0.00203004,0.00197059,0.00323902,0.00335303,-0.00365
 821,-0.02034511,-0.02902953,0.04007044,-0.00745792,-0.00016935,-0.0013
 8330,0.00970271,0.00347298,-0.00497380,0.00165637,-0.00287159,0.009356
 18,0.00009595,-0.00024108,-0.00019307,0.00141379,-0.00042809,-0.000855
 25,0.00068243,0.00031363,-0.00078990,-0.00002035,0.00005713,-0.0000432
 0,0.00002268,-0.00020569,0.00029031,-0.00008178,0.00001909,0.00000120,
 0.00002752,0.00000391,-0.00000581,0.00000048,0.00000308,-0.00010195,0.
 00006340,-0.00023234,0.00002345,0.00001644,-0.00001102,-0.00002331,-0.
 00001002,-0.00000414,-0.00000019,-0.00001990,-0.00003597,0.00000649,-0
 .00000872,0.00000720,-0.00000438,0.00311555,0.00054798,-0.00033718,-0.
 00111361,-0.00002209,-0.00015120,-0.00113542,-0.00062505,0.00099742,-0
 .00101654,-0.00017132,-0.00091175,0.00046968,0.00023099,0.00034909,0.0
 0038612,-0.00029555,0.00050417,-0.13180384,-0.03682280,-0.02366330,0.5
 7862045,0.00098134,0.00011257,0.00142884,0.00676012,-0.00047370,0.0006
 8163,-0.00079977,-0.00072102,0.00008448,0.00021097,0.00009008,0.000035
 51,0.00014092,0.00016134,0.00005282,-0.00000295,-0.00000215,-0.0000325
 4,-0.00001588,-0.00000284,0.00000365,-0.00004207,-0.00002214,-0.000037
 20,0.00005421,-0.00007158,0.00001112,0.00012957,0.00003995,0.00003760,
 0.00002423,0.00000304,0.00000354,0.00001778,0.00002176,0.00001665,0.00
 001067,0.00000293,-0.00000172,-0.00375087,0.00005005,-0.00207801,0.000
 20528,-0.00007548,-0.00092409,-0.03056603,0.00324975,0.02337806,-0.002
 16095,0.00012658,-0.00007744,0.00473192,0.00324097,0.00236142,-0.00060
 613,-0.00196453,0.00276644,0.00006427,-0.00005735,-0.00010835,0.000521
 23,0.00017394,-0.00032558,0.00002314,0.00068896,-0.00000467,0.00004280
 ,-0.00010973,-0.00007065,-0.00002736,-0.00016480,0.00003893,0.00000874
 ,-0.00001933,0.00000474,-0.00001245,0.00001091,-0.00001292,0.00001491,
 0.00002389,-0.00003021,-0.00009020,0.00007375,0.00003514,0.00001103,-0
 .00006636,0.00000126,-0.00000502,-0.00002254,0.00000288,-0.00000784,-0
 .00001832,-0.00001053,-0.00001211,-0.00001125,0.00000024,0.00227022,-0
 .00035872,-0.00051476,-0.00091217,0.00002824,-0.00006253,-0.00088176,-
 0.00029236,0.00088106,-0.00075019,0.00011561,-0.00084326,0.00040155,0.
 00014931,0.00034256,0.00025404,-0.00015602,0.00041021,-0.03035399,0.02
 405332,-0.01360870,0.20225319,0.13031501,0.00003960,0.00089691,-0.0008
 0646,-0.01240070,0.00248177,-0.00380795,0.00126416,0.00097676,0.000159
 92,-0.00031862,-0.00012010,-0.00002677,-0.00014169,-0.00032496,-0.0000
 0744,-0.00001117,0.00003817,0.00001478,0.00002192,0.00001038,-0.000005
 34,0.00005918,0.00006423,0.00000585,-0.00001310,0.00013780,0.00003472,
 -0.00017936,-0.00005425,-0.00001669,-0.00003946,-0.00000509,-0.0000049
 5,-0.00001925,-0.00002820,-0.00001945,-0.00002022,-0.00000387,0.000000
 30,0.00641814,-0.00018432,0.00191400,-0.00094706,-0.00101539,0.0018647
 1,0.04611147,0.02760199,-0.01708445,0.00350544,0.00050529,0.00017845,-
 0.00740684,0.00173962,-0.00131705,0.00171722,0.00135032,-0.00519893,-0
 .00005053,-0.00006430,0.00013648,-0.00033212,0.00036424,0.00059497,-0.
 00036167,-0.00091403,-0.00076867,-0.00004094,0.00035197,0.00024613,0.0
 0010156,0.00016587,0.00001769,-0.00002210,0.00002733,-0.00008880,0.000
 01950,-0.00003210,0.00002679,-0.00002745,-0.00001609,0.00003750,-0.000
 00051,-0.00008511,-0.00011987,0.00000886,0.00008259,0.00003194,0.00000
 674,0.00004774,0.00000539,0.00000630,0.00004124,0.00001934,0.00000647,
 0.00001571,0.00000298,-0.00375786,-0.00096679,-0.00003435,0.00153098,0
 .00006323,0.00028344,0.00140684,0.00089095,-0.00121930,0.00136493,-0.0
 0018989,0.00133783,-0.00062012,-0.00015194,-0.00061766,-0.00050083,0.0
 0035892,-0.00074510,-0.03949059,-0.01567159,0.04121858,-0.11208305,-0.
 09350485,0.16465619,0.00018867,0.00051605,0.00235341,-0.00288398,-0.00
 626433,0.00608852,-0.00068646,-0.00064458,-0.00023901,0.00029079,0.000
 05922,0.00006453,-0.00002978,0.00001839,-0.00002925,-0.00006737,-0.000
 12056,-0.00004327,-0.00000818,0.00000828,-0.00001504,-0.00000064,0.000
 00085,-0.00002896,-0.00009149,0.00000260,-0.00003640,0.00001821,0.0000
 8715,0.00003235,0.00002122,0.00000050,-0.00000651,-0.00000355,0.000008
 09,-0.00001359,0.00000826,0.00000525,0.00000935,0.02188780,0.01298354,
 -0.02692278,-0.00462680,-0.00076527,-0.00257004,-0.11681794,-0.0006318
 4,0.00033831,-0.00090770,0.00034958,-0.00086175,0.00402904,-0.01411362
 ,0.03440102,-0.00859321,-0.00150709,-0.00056818,-0.00012359,0.00004885
 ,-0.00000110,-0.00303203,0.00044523,-0.00050417,-0.00015793,0.00018030
 ,0.00059038,0.00001051,-0.00011538,-0.00004067,-0.00005256,0.00009258,
 -0.00041481,0.00004345,-0.00007274,0.00000694,-0.00000826,0.00000575,0
 .00000284,-0.00001310,0.00001039,0.00016394,0.00000163,0.00017755,0.00
 017983,-0.00000750,-0.00011117,0.00002870,0.00000899,-0.00002357,0.000
 00242,0.00003027,0.00000283,-0.00003608,0.00001515,-0.00002931,0.00000
 924,0.00215482,-0.00096520,0.00162807,-0.00047532,0.00030873,-0.000719
 87,-0.00093039,-0.00027144,0.00059923,0.00139103,0.00107857,-0.0007620
 9,-0.00030952,-0.00039114,-0.00000846,-0.00066128,0.00035656,-0.000510
 79,-0.38869581,0.00115447,-0.21629344,-0.42676167,-0.15027890,0.119101
 63,0.93908999,-0.00028207,-0.00001153,0.00225051,-0.00844222,-0.006164
 92,0.00300122,0.00072198,0.00085321,-0.00025349,-0.00006340,-0.0001714
 1,-0.00009414,-0.00035943,-0.00034169,-0.00022230,-0.00014277,-0.00016
 352,0.00000596,0.00003356,0.00000965,-0.00000078,0.00018108,0.00010470
 ,0.00003235,-0.00009760,0.00016674,0.00013502,-0.00030145,0.00008449,-
 0.00004493,-0.00004767,-0.00000684,-0.00000339,-0.00002609,-0.00003856
 ,-0.00002826,-0.00002958,-0.00000647,0.00002167,0.01251068,-0.00374685
 ,0.00444677,-0.00133127,0.00303426,0.00555485,0.00948552,-0.09063319,0
 .02279428,0.00921199,-0.00054422,0.00040531,-0.01891742,-0.01512209,0.
 01923444,-0.00398647,0.01148574,-0.01023271,-0.00000754,-0.00017151,0.
 00023089,0.00032460,-0.00376371,-0.00137809,-0.00063898,-0.00085803,-0
 .00001947,0.00001872,0.00018964,0.00021055,-0.00001889,0.00023048,-0.0
 0007524,0.00001487,0.00004880,-0.00005340,0.00000050,-0.00001524,0.000
 00563,-0.00004925,-0.00006714,0.00006343,0.00002319,0.00010480,-0.0001
 6199,0.00000218,0.00011708,-0.00000532,0.00000671,0.00004802,-0.000001
 55,0.00001950,0.00004466,0.00001667,0.00001425,0.00002146,-0.00000143,
 -0.00534667,0.00154052,0.00209494,0.00201016,-0.00023522,0.00031735,0.
 00177911,0.00006532,-0.00187134,0.00111646,-0.00025162,0.00196567,-0.0
 0077487,-0.00020035,-0.00077471,-0.00056222,0.00029728,-0.00085792,0.0
 0037952,-0.09296012,0.02363312,-0.14486484,-0.15344008,0.07004473,0.15
 265542,0.34661193,0.00197152,-0.00249292,-0.00231510,0.02020389,0.0111
 9447,-0.00843232,-0.00349838,-0.00313290,0.00061731,0.00071706,0.00051
 452,0.00013034,0.00074934,0.00132314,0.00018380,0.00020429,0.00011187,
 0.00005395,-0.00007447,-0.00003660,-0.00000334,-0.00032788,-0.00043141
 ,0.00022980,0.00021051,-0.00052610,-0.00039942,0.00080313,0.00004512,0
 .00003564,0.00015450,0.00001621,0.00000507,0.00006639,0.00011445,0.000
 06006,0.00009353,0.00002363,-0.00005730,-0.03472213,0.00165022,-0.0197
 9718,0.00327038,0.00833376,-0.00788808,-0.00984817,0.01537163,-0.13027
 066,-0.01897647,-0.00172378,-0.00195994,0.04342613,0.02546940,-0.04258
 467,0.00294230,-0.00777595,0.03042840,-0.00003828,-0.00042218,-0.00080
 589,-0.00204138,-0.00330323,-0.00212552,0.00242418,0.00408349,0.000581
 97,0.00009765,-0.00095321,-0.00062253,-0.00046088,-0.00076230,-0.00013
 428,-0.00009996,-0.00005273,0.00026970,0.00000552,0.00008745,-0.000075
 37,-0.00005133,-0.00001104,-0.00003860,0.00005787,0.00020361,0.0004723
 8,0.00000568,-0.00041852,-0.00017950,-0.00001156,-0.00016110,-0.000006
 48,-0.00001296,-0.00017334,-0.00008804,-0.00000480,-0.00006742,-0.0000
 0950,0.01264245,0.00277050,-0.00160941,-0.00495355,0.00018900,-0.00140
 783,-0.00389488,-0.00238936,0.00353750,-0.00336724,0.00080794,-0.00431
 448,0.00154256,0.00048687,0.00191458,0.00137590,-0.00135685,0.00225906
 ,-0.21484847,0.02305640,-0.29327413,0.10977412,0.07325571,-0.17055941,
 0.09306450,-0.13466367,0.64128936,-0.00255075,0.01302933,-0.02827311,-
 0.07590385,-0.01529812,0.06915774,0.00571191,0.00318420,-0.00118498,-0
 .00185634,0.00012335,0.00046541,0.00042664,-0.00063333,0.00071692,0.00
 064646,0.00079577,0.00040970,0.00004028,0.00000084,-0.00011045,-0.0007
 6001,-0.00019257,0.00019926,-0.00000687,-0.00010269,-0.00047394,0.0003
 0782,-0.00077433,-0.00024497,-0.00000594,0.00000958,-0.00001592,-0.000
 01363,-0.00000056,-0.00002045,0.00001713,-0.00000548,-0.00004611,-0.00
 228929,-0.01321270,0.03254818,-0.00504585,0.00016067,-0.00011674,0.001
 46028,0.00044709,-0.00103306,0.00093482,-0.00035715,0.00160931,-0.0010
 4585,-0.00066237,0.00066611,0.00021776,0.00051530,-0.00103255,-0.00032
 169,-0.00009639,-0.00002993,-0.00006372,0.00003463,0.00002700,-0.00010
 968,-0.00196893,-0.00199060,-0.00007424,0.00092755,0.00039173,0.000251
 59,-0.00000332,0.00064991,-0.00017869,-0.00001559,-0.00020543,0.000068
 49,-0.00009222,0.00004656,-0.00011756,0.00003802,0.00003017,0.00028682
 ,0.00025538,0.00005892,0.00006986,0.00009011,0.00011050,0.00000134,0.0
 0007847,0.00001317,-0.00001133,0.00003626,0.00002977,0.00003164,0.0000
 2495,-0.00000326,-0.00050471,-0.00004701,0.00010836,0.00014237,-0.0000
 3031,0.00005176,0.00009123,0.00011216,-0.00023594,-0.00073155,0.000111
 85,-0.00080621,0.00025682,0.00021954,0.00019130,0.00017214,-0.00025998
 ,0.00027115,0.00448471,0.00140034,0.00153138,0.00564474,0.00214455,-0.
 00390571,-0.01324376,-0.00421930,0.00142939,0.08357045,0.00220597,-0.0
 1227181,0.01487547,-0.00974893,-0.06921607,0.13761507,-0.00038900,0.00
 038252,-0.00151838,-0.00038334,0.00009227,0.00014777,0.00038718,0.0002
 9541,0.00076587,0.00026882,0.00036934,0.00017994,0.00001807,-0.0000116
 4,-0.00004147,-0.00032731,-0.00024091,0.00006373,0.00012271,-0.0002423
 5,-0.00040088,0.00038245,-0.00022704,-0.00009505,0.00003967,-0.0000014
 4,0.00000700,0.00000754,0.00003116,0.00001389,0.00003444,-0.00000288,-
 0.00001600,-0.01422084,-0.00420070,0.00092402,0.00455642,0.00599801,-0
 .00201271,0.00267453,-0.00440876,0.00450559,-0.00403791,0.00106346,-0.
 00077492,-0.00009899,-0.00000886,0.00002135,0.00329412,0.00024373,0.00
 088435,0.00018039,-0.00047706,-0.00018321,0.00002595,0.00007203,-0.000
 04564,0.00025512,0.00018056,0.00234172,0.00015568,-0.00091314,-0.00045
 721,0.00022430,-0.00005151,0.00108027,0.00008716,0.00014827,0.00032682
 ,-0.00001621,0.00008579,-0.00008750,-0.00017545,-0.00031786,-0.0004035
 6,-0.00008455,-0.00167521,-0.00141401,-0.00007003,0.00034460,-0.000270
 09,-0.00002384,-0.00005258,-0.00001651,-0.00002402,-0.00000729,0.00003
 371,-0.00000413,0.00004421,-0.00004833,-0.00307038,-0.00086065,0.00112
 248,0.00128429,-0.00009544,0.00037025,0.00053699,0.00052660,-0.0009560
 0,0.00100281,-0.00085778,0.00023522,-0.00036179,0.00051049,0.00005072,
 -0.00045299,-0.00007209,-0.00010217,-0.00132211,0.00003491,0.00201674,
 -0.00291461,-0.00468167,0.00507512,0.00574936,0.00385555,-0.00825478,0
 .01423240,0.08661580,-0.00624866,0.00196415,0.00055821,0.07436344,0.15
 505129,-0.36339394,-0.00142409,-0.00091204,-0.00117410,0.00019489,0.00
 008225,0.00002917,-0.00039323,0.00034567,-0.00021557,0.00020950,-0.000
 20172,-0.00002948,0.00001869,-0.00003904,-0.00000779,0.00008581,-0.000
 02812,-0.00001400,-0.00007249,-0.00062094,-0.00029732,-0.00000479,0.00
 000271,-0.00002123,0.00004666,0.00001746,-0.00000165,0.00003983,0.0000
 3240,0.00002115,0.00004357,-0.00000991,0.00001968,0.01131099,-0.002657
 25,-0.00639906,-0.00229252,-0.00113628,0.00538570,-0.00131043,0.002572
 61,-0.00391448,0.00252157,0.00064520,0.00041350,-0.00029337,-0.0002720
 0,0.00005009,-0.00224296,0.00003097,-0.00081857,0.00000495,-0.00007866
 ,-0.00001275,-0.00005710,-0.00000871,0.00010548,0.00027150,0.00010600,
 0.00123048,0.00020966,-0.00045919,-0.00023267,-0.00006112,0.00026192,-
 0.00025278,0.00000801,0.00002727,0.00015989,0.00000475,0.00001816,-0.0
 0002155,0.00030850,-0.00009148,0.00002114,-0.00014491,-0.00115051,-0.0
 0010081,-0.00005397,-0.00003371,-0.00016102,-0.00001720,-0.00004664,0.
 00000547,-0.00001405,-0.00002943,-0.00001348,-0.00004499,-0.00002245,0
 .00001456,0.00180092,0.00058981,-0.00065992,-0.00073690,-0.00001385,-0
 .00020356,-0.00031390,-0.00029799,0.00051738,-0.00097977,0.00019915,-0
 .00128689,0.00033642,0.00025091,0.00060588,0.00015171,-0.00031794,0.00
 058227,0.00231997,0.00109631,-0.00054145,0.00147844,0.00641353,-0.0103
 3937,-0.00803898,-0.00572125,0.00689006,-0.07098432,-0.15555867,0.3735
 0332\\0.00000128,0.00000136,0.00000143,-0.00000460,-0.00000111,0.00000
 047,-0.00000022,0.00000283,0.00000113,-0.00000130,0.00000546,0.0000009
 4,-0.00000323,0.00000446,0.00000315,-0.00000112,0.00000821,0.00000181,
 0.00000143,0.00000615,-0.00000072,-0.00000595,0.00000496,0.00000443,-0
 .00000526,0.00000100,0.00000467,-0.00000375,0.00000650,0.00000345,-0.0
 0000050,0.00000934,0.00000134,-0.00000681,0.00000452,0.00000545,-0.000
 00482,0.00000850,0.00000439,0.00000193,-0.00000159,-0.00000036,-0.0000
 0411,-0.00000467,0.00000138,-0.00000255,-0.00000417,0.00000167,0.00000
 111,-0.00000681,-0.00000010,-0.00000159,-0.00000547,0.00000039,-0.0000
 0037,-0.00000834,-0.00000149,0.00000029,-0.00000857,-0.00000091,-0.000
 00146,-0.00000689,0.00000086,0.00000103,0.00000220,-0.00000276,0.00000
 452,0.00000042,-0.00000186,0.00000256,0.00000382,-0.00000128,0.0000062
 5,0.00000263,-0.00000385,0.00000285,0.00000123,-0.00000250,0.00000551,
 0.00000296,-0.00000317,0.00000168,0.00000352,-0.00000079,0.00000673,0.
 00000333,-0.00000519,0.00000740,0.00000161,-0.00000544,0.00000590,0.00
 000412,-0.00000391,0.00000880,0.00000330,-0.00000617,0.00000109,-0.000
 00956,-0.00000065,-0.00000103,-0.00001204,-0.00000076,0.00000005,-0.00
 001288,-0.00000181,-0.00000032,-0.00000584,-0.00000106,-0.00000180,-0.
 00000205,0.00000152,0.00000076,-0.00000364,-0.00000048,-0.00000173,-0.
 00000190,0.00000038,-0.00000402,0.00000051,0.00000132,-0.00000301,0.00
 000019,0.00000292,-0.00000161,0.00000238,0.00000218\\\@


 OF ALL THE WONDERS OF THE UNIVERSE, THE GREATEST IS MAN.

                                    -- ARISTOTLE
 Job cpu time:       0 days 23 hours 56 minutes 54.0 seconds.
 Elapsed time:       0 days  1 hours 11 minutes 59.6 seconds.
 File lengths (MBytes):  RWF=   1764 Int=      0 D2E=      0 Chk=     45 Scr=      1
 Normal termination of Gaussian 16 at Sat Apr 30 01:03:20 2022.
