 Entering Gaussian System, Link 0=g16
 Initial command:
 /usr/local/g16/l1.exe "/home/raul/scrgauss16/Gau-153001.inp" -scrdir="/home/raul/scrgauss16/"
 Entering Link 1 = /usr/local/g16/l1.exe PID=    153003.
  
 Copyright (c) 1988,1990,1992,1993,1995,1998,2003,2009,2016,
            Gaussian, Inc.  All Rights Reserved.
  
 This is part of the Gaussian(R) 16 program.  It is based on
 the Gaussian(R) 09 system (copyright 2009, Gaussian, Inc.),
 the Gaussian(R) 03 system (copyright 2003, Gaussian, Inc.),
 the Gaussian(R) 98 system (copyright 1998, Gaussian, Inc.),
 the Gaussian(R) 94 system (copyright 1995, Gaussian, Inc.),
 the Gaussian 92(TM) system (copyright 1992, Gaussian, Inc.),
 the Gaussian 90(TM) system (copyright 1990, Gaussian, Inc.),
 the Gaussian 88(TM) system (copyright 1988, Gaussian, Inc.),
 the Gaussian 86(TM) system (copyright 1986, Carnegie Mellon
 University), and the Gaussian 82(TM) system (copyright 1983,
 Carnegie Mellon University). Gaussian is a federally registered
 trademark of Gaussian, Inc.
  
 This software contains proprietary and confidential information,
 including trade secrets, belonging to Gaussian, Inc.
  
 This software is provided under written license and may be
 used, copied, transmitted, or stored only in accord with that
 written license.
  
 The following legend is applicable only to US Government
 contracts under FAR:
  
                    RESTRICTED RIGHTS LEGEND
  
 Use, reproduction and disclosure by the US Government is
 subject to restrictions as set forth in subparagraphs (a)
 and (c) of the Commercial Computer Software - Restricted
 Rights clause in FAR 52.227-19.
  
 Gaussian, Inc.
 340 Quinnipiac St., Bldg. 40, Wallingford CT 06492
  
  
 ---------------------------------------------------------------
 Warning -- This program may not be used in any manner that
 competes with the business of Gaussian, Inc. or will provide
 assistance to any competitor of Gaussian, Inc.  The licensee
 of this program is prohibited from giving any competitor of
 Gaussian, Inc. access to this program.  By using this program,
 the user acknowledges that Gaussian, Inc. is engaged in the
 business of creating and licensing software in the field of
 computational chemistry and represents and warrants to the
 licensee that it is not a competitor of Gaussian, Inc. and that
 it will not use this program in any manner prohibited above.
 ---------------------------------------------------------------
  

 Cite this work as:
 Gaussian 16, Revision A.03,
 M. J. Frisch, G. W. Trucks, H. B. Schlegel, G. E. Scuseria, 
 M. A. Robb, J. R. Cheeseman, G. Scalmani, V. Barone, 
 G. A. Petersson, H. Nakatsuji, X. Li, M. Caricato, A. V. Marenich, 
 J. Bloino, B. G. Janesko, R. Gomperts, B. Mennucci, H. P. Hratchian, 
 J. V. Ortiz, A. F. Izmaylov, J. L. Sonnenberg, D. Williams-Young, 
 F. Ding, F. Lipparini, F. Egidi, J. Goings, B. Peng, A. Petrone, 
 T. Henderson, D. Ranasinghe, V. G. Zakrzewski, J. Gao, N. Rega, 
 G. Zheng, W. Liang, M. Hada, M. Ehara, K. Toyota, R. Fukuda, 
 J. Hasegawa, M. Ishida, T. Nakajima, Y. Honda, O. Kitao, H. Nakai, 
 T. Vreven, K. Throssell, J. A. Montgomery, Jr., J. E. Peralta, 
 F. Ogliaro, M. J. Bearpark, J. J. Heyd, E. N. Brothers, K. N. Kudin, 
 V. N. Staroverov, T. A. Keith, R. Kobayashi, J. Normand, 
 K. Raghavachari, A. P. Rendell, J. C. Burant, S. S. Iyengar, 
 J. Tomasi, M. Cossi, J. M. Millam, M. Klene, C. Adamo, R. Cammi, 
 J. W. Ochterski, R. L. Martin, K. Morokuma, O. Farkas, 
 J. B. Foresman, and D. J. Fox, Gaussian, Inc., Wallingford CT, 2016.
 
 ******************************************
 Gaussian 16:  ES64L-G16RevA.03 25-Dec-2016
                29-Apr-2022 
 ******************************************
 %chk=bisaliloETBG.chk
 %nprocshared=10
 Will use up to   10 processors via shared memory.
 %mem=16GB
 ----------------------------------------------------------------------
 # opt freq 6-31+g(d,p) m052x scf=(xqc,direct) scrf=(smd,solvent=ethano
 l) geom=check guess=check iop(1/8=4)
 ----------------------------------------------------------------------
 1/8=4,18=20,19=15,26=3,29=2,38=1/1,3;
 2/9=110,12=2,40=1/2;
 3/5=1,6=6,7=111,11=2,14=-4,25=1,30=1,70=32201,71=1,72=4,74=-38,116=-2/1,2,3;
 4/5=1/1;
 5/5=2,8=3,13=1,38=6,53=4/2,8;
 6/7=2,8=2,9=2,10=2,28=1/1;
 7//1,2,3,16;
 1/8=4,18=20,19=15,26=3/3(2);
 2/9=110/2;
 99//99;
 2/9=110/2;
 3/5=1,6=6,7=111,11=2,14=-2,25=1,30=1,70=32205,71=1,72=4,74=-38/1,2,3;
 4/5=5,16=3,69=1/1;
 5/5=2,8=3,13=1,38=5,53=4/2,8;
 7//1,2,3,16;
 1/8=4,18=20,19=15,26=3/3(-5);
 2/9=110/2;
 6/7=2,8=2,9=2,10=2,19=2,28=1/1;
 99/9=1/99;
 -------------------
 Title Card Required
 -------------------
 Structure from the checkpoint file:  "bisaliloETBG.chk"
 Charge =  0 Multiplicity = 1
 Redundant internal coordinates found in file.  (old form).
 C,0,-0.0000237149,-0.0001035671,0.5379609643
 C,0,0.9869418436,-0.748689557,-0.3227889065
 C,0,-0.9869114769,0.7486963804,-0.3226928417
 H,0,-0.5173645463,-0.7081346611,1.1881270238
 H,0,0.5476321658,-1.5237523845,-0.9452830037
 C,0,2.3037782548,-0.543893613,-0.4187210556
 H,0,-0.5475235466,1.5238240347,-0.9450513728
 C,0,-2.3037636873,0.5440292137,-0.4186821914
 H,0,2.8549207177,-1.1791920783,-1.1070603939
 C,0,3.132368663,0.4699667842,0.3176653831
 H,0,-2.8548375945,1.1794873203,-1.1069291513
 C,0,-3.1324573175,-0.469872783,0.317530536
 H,0,3.6588701399,1.1151119692,-0.3903237174
 H,0,2.5385598638,1.1038121532,0.9739591236
 H,0,3.8938574441,-0.0277267692,0.9238517699
 H,0,-3.6590478909,-1.1148249875,-0.3905676317
 H,0,-2.5387096264,-1.1039069587,0.9736971786
 H,0,-3.8938762593,0.0277969284,0.9238246592
 H,0,0.5172575679,0.7077655754,1.1883516277
 Recover connectivity data from disk.

 GradGradGradGradGradGradGradGradGradGradGradGradGradGradGradGradGradGrad
 Berny optimization.
 Initialization pass.
                           ----------------------------
                           !    Initial Parameters    !
                           ! (Angstroms and Degrees)  !
 --------------------------                            --------------------------
 ! Name  Definition              Value          Derivative Info.                !
 --------------------------------------------------------------------------------
 ! R1    R(1,2)                  1.5084         estimate D2E/DX2                !
 ! R2    R(1,3)                  1.5084         estimate D2E/DX2                !
 ! R3    R(1,4)                  1.0916         estimate D2E/DX2                !
 ! R4    R(1,19)                 1.0916         estimate D2E/DX2                !
 ! R5    R(2,5)                  1.0868         estimate D2E/DX2                !
 ! R6    R(2,6)                  1.3361         estimate D2E/DX2                !
 ! R7    R(3,7)                  1.0868         estimate D2E/DX2                !
 ! R8    R(3,8)                  1.3361         estimate D2E/DX2                !
 ! R9    R(6,9)                  1.0868         estimate D2E/DX2                !
 ! R10   R(6,10)                 1.5022         estimate D2E/DX2                !
 ! R11   R(8,11)                 1.0868         estimate D2E/DX2                !
 ! R12   R(8,12)                 1.5022         estimate D2E/DX2                !
 ! R13   R(10,13)                1.093          estimate D2E/DX2                !
 ! R14   R(10,14)                1.0886         estimate D2E/DX2                !
 ! R15   R(10,15)                1.0932         estimate D2E/DX2                !
 ! R16   R(12,16)                1.093          estimate D2E/DX2                !
 ! R17   R(12,17)                1.0886         estimate D2E/DX2                !
 ! R18   R(12,18)                1.0932         estimate D2E/DX2                !
 ! A1    A(2,1,3)              110.4168         estimate D2E/DX2                !
 ! A2    A(2,1,4)              109.1512         estimate D2E/DX2                !
 ! A3    A(2,1,19)             110.5934         estimate D2E/DX2                !
 ! A4    A(3,1,4)              110.5934         estimate D2E/DX2                !
 ! A5    A(3,1,19)             109.1512         estimate D2E/DX2                !
 ! A6    A(4,1,19)             106.876          estimate D2E/DX2                !
 ! A7    A(1,2,5)              114.5988         estimate D2E/DX2                !
 ! A8    A(1,2,6)              127.5723         estimate D2E/DX2                !
 ! A9    A(5,2,6)              117.8113         estimate D2E/DX2                !
 ! A10   A(1,3,7)              114.5986         estimate D2E/DX2                !
 ! A11   A(1,3,8)              127.5725         estimate D2E/DX2                !
 ! A12   A(7,3,8)              117.8113         estimate D2E/DX2                !
 ! A13   A(2,6,9)              117.1084         estimate D2E/DX2                !
 ! A14   A(2,6,10)             127.7242         estimate D2E/DX2                !
 ! A15   A(9,6,10)             115.1675         estimate D2E/DX2                !
 ! A16   A(3,8,11)             117.1083         estimate D2E/DX2                !
 ! A17   A(3,8,12)             127.7242         estimate D2E/DX2                !
 ! A18   A(11,8,12)            115.1675         estimate D2E/DX2                !
 ! A19   A(6,10,13)            110.2751         estimate D2E/DX2                !
 ! A20   A(6,10,14)            112.8061         estimate D2E/DX2                !
 ! A21   A(6,10,15)            110.4122         estimate D2E/DX2                !
 ! A22   A(13,10,14)           108.0343         estimate D2E/DX2                !
 ! A23   A(13,10,15)           106.9997         estimate D2E/DX2                !
 ! A24   A(14,10,15)           108.1042         estimate D2E/DX2                !
 ! A25   A(8,12,16)            110.2752         estimate D2E/DX2                !
 ! A26   A(8,12,17)            112.8061         estimate D2E/DX2                !
 ! A27   A(8,12,18)            110.4122         estimate D2E/DX2                !
 ! A28   A(16,12,17)           108.0345         estimate D2E/DX2                !
 ! A29   A(16,12,18)           106.9997         estimate D2E/DX2                !
 ! A30   A(17,12,18)           108.1041         estimate D2E/DX2                !
 ! D1    D(3,1,2,5)            -63.332          estimate D2E/DX2                !
 ! D2    D(3,1,2,6)            115.0954         estimate D2E/DX2                !
 ! D3    D(4,1,2,5)             58.4418         estimate D2E/DX2                !
 ! D4    D(4,1,2,6)           -123.1308         estimate D2E/DX2                !
 ! D5    D(19,1,2,5)           175.7499         estimate D2E/DX2                !
 ! D6    D(19,1,2,6)            -5.8227         estimate D2E/DX2                !
 ! D7    D(2,1,3,7)            -63.3243         estimate D2E/DX2                !
 ! D8    D(2,1,3,8)            115.1038         estimate D2E/DX2                !
 ! D9    D(4,1,3,7)            175.7577         estimate D2E/DX2                !
 ! D10   D(4,1,3,8)             -5.8141         estimate D2E/DX2                !
 ! D11   D(19,1,3,7)            58.4496         estimate D2E/DX2                !
 ! D12   D(19,1,3,8)          -123.1223         estimate D2E/DX2                !
 ! D13   D(1,2,6,9)           -179.2214         estimate D2E/DX2                !
 ! D14   D(1,2,6,10)             0.819          estimate D2E/DX2                !
 ! D15   D(5,2,6,9)             -0.838          estimate D2E/DX2                !
 ! D16   D(5,2,6,10)           179.2024         estimate D2E/DX2                !
 ! D17   D(1,3,8,11)          -179.2219         estimate D2E/DX2                !
 ! D18   D(1,3,8,12)             0.8189         estimate D2E/DX2                !
 ! D19   D(7,3,8,11)            -0.8378         estimate D2E/DX2                !
 ! D20   D(7,3,8,12)           179.203          estimate D2E/DX2                !
 ! D21   D(2,6,10,13)         -122.5961         estimate D2E/DX2                !
 ! D22   D(2,6,10,14)           -1.7081         estimate D2E/DX2                !
 ! D23   D(2,6,10,15)          119.3673         estimate D2E/DX2                !
 ! D24   D(9,6,10,13)           57.4437         estimate D2E/DX2                !
 ! D25   D(9,6,10,14)          178.3316         estimate D2E/DX2                !
 ! D26   D(9,6,10,15)          -60.593          estimate D2E/DX2                !
 ! D27   D(3,8,12,16)         -122.5994         estimate D2E/DX2                !
 ! D28   D(3,8,12,17)           -1.7112         estimate D2E/DX2                !
 ! D29   D(3,8,12,18)          119.364          estimate D2E/DX2                !
 ! D30   D(11,8,12,16)          57.4407         estimate D2E/DX2                !
 ! D31   D(11,8,12,17)         178.3289         estimate D2E/DX2                !
 ! D32   D(11,8,12,18)         -60.5959         estimate D2E/DX2                !
 --------------------------------------------------------------------------------
 Trust Radius=4.00D-02 FncErr=1.00D-07 GrdErr=1.00D-06 EigMax=2.50D+02 EigMin=1.00D-04
 Number of steps in this run=     90 maximum allowed number of steps=    114.
 GradGradGradGradGradGradGradGradGradGradGradGradGradGradGradGradGradGrad

                          Input orientation:                          
 ---------------------------------------------------------------------
 Center     Atomic      Atomic             Coordinates (Angstroms)
 Number     Number       Type             X           Y           Z
 ---------------------------------------------------------------------
      1          6           0       -0.000024   -0.000104    0.537961
      2          6           0        0.986942   -0.748690   -0.322789
      3          6           0       -0.986911    0.748696   -0.322693
      4          1           0       -0.517365   -0.708135    1.188127
      5          1           0        0.547632   -1.523752   -0.945283
      6          6           0        2.303778   -0.543894   -0.418721
      7          1           0       -0.547524    1.523824   -0.945051
      8          6           0       -2.303764    0.544029   -0.418682
      9          1           0        2.854921   -1.179192   -1.107060
     10          6           0        3.132369    0.469967    0.317665
     11          1           0       -2.854838    1.179487   -1.106929
     12          6           0       -3.132457   -0.469873    0.317531
     13          1           0        3.658870    1.115112   -0.390324
     14          1           0        2.538560    1.103812    0.973959
     15          1           0        3.893857   -0.027727    0.923852
     16          1           0       -3.659048   -1.114825   -0.390568
     17          1           0       -2.538710   -1.103907    0.973697
     18          1           0       -3.893876    0.027797    0.923825
     19          1           0        0.517258    0.707766    1.188352
 ---------------------------------------------------------------------
                    Distance matrix (angstroms):
                    1          2          3          4          5
     1  C    0.000000
     2  C    1.508434   0.000000
     3  C    1.508434   2.477552   0.000000
     4  H    1.091634   2.132475   2.150676   0.000000
     5  H    2.195779   1.086837   2.811844   2.520097   0.000000
     6  C    2.553126   1.336115   3.536757   3.250813   2.078807
     7  H    2.195777   2.811781   1.086837   3.087556   3.238377
     8  C    2.553128   3.536815   1.336115   2.709423   3.561388
     9  H    3.499579   2.071173   4.369401   4.106347   2.338477
    10  C    3.175119   2.549149   4.178064   3.932706   3.500117
    11  H    3.499580   4.369441   2.071172   3.780764   4.348613
    12  C    3.175124   4.178181   2.549150   2.766481   4.030933
    13  H    3.936105   3.258453   4.660700   4.822517   4.117206
    14  H    2.802344   2.742414   3.773110   3.559170   3.814627
    15  H    3.913053   3.244081   5.096922   4.471205   4.114484
    16  H    3.936144   4.660887   3.258471   3.539470   4.262756
    17  H    2.802352   3.773231   2.742416   2.070858   3.658451
    18  H    3.913024   5.096995   3.244063   3.465874   5.062397
    19  H    1.091635   2.150677   2.132476   1.753630   3.087554
                    6          7          8          9         10
     6  C    0.000000
     7  H    3.561236   0.000000
     8  C    4.734239   2.078808   0.000000
     9  H    1.086818   4.348468   5.482279   0.000000
    10  C    1.502245   4.030716   5.486276   2.196940   0.000000
    11  H    5.482243   2.338476   1.086818   6.177759   6.195121
    12  C    5.486365   3.500118   1.502245   6.195263   6.334930
    13  H    2.142284   4.262454   5.989987   2.534537   1.093007
    14  H    2.170165   3.658268   5.069606   3.105291   1.088619
    15  H    2.144127   5.062210   6.367088   2.555360   1.093172
    16  H    5.990163   4.117220   2.142285   6.553571   7.009743
    17  H    5.069727   3.814628   2.170164   5.781563   5.921873
    18  H    6.367117   4.114471   2.144126   7.150355   7.066191
    19  H    2.709426   2.520143   3.250773   3.780766   2.766487
                   11         12         13         14         15
    11  H    0.000000
    12  C    2.196940   0.000000
    13  H    6.553324   7.009662   0.000000
    14  H    5.781398   5.921809   1.765358   0.000000
    15  H    7.150267   7.066273   1.757372   1.766274   0.000000
    16  H    2.534521   1.093007   7.650134   6.722695   7.743117
    17  H    3.105291   1.088619   6.722692   5.536487   6.522160
    18  H    2.555377   1.093173   7.742946   6.522006   7.787932
    19  H    4.106320   3.932630   3.539474   2.070865   3.465882
                   16         17         18         19
    16  H    0.000000
    17  H    1.765360   0.000000
    18  H    1.757372   1.766272   0.000000
    19  H    4.822484   3.559097   4.471066   0.000000
 Stoichiometry    C7H12
 Framework group  C1[X(C7H12)]
 Deg. of freedom    51
 Full point group                 C1      NOp   1
 Largest Abelian subgroup         C1      NOp   1
 Largest concise Abelian subgroup C1      NOp   1
                         Standard orientation:                         
 ---------------------------------------------------------------------
 Center     Atomic      Atomic             Coordinates (Angstroms)
 Number     Number       Type             X           Y           Z
 ---------------------------------------------------------------------
      1          6           0        0.000011    0.000123    0.548549
      2          6           0       -0.988023    0.747298   -0.312201
      3          6           0        0.987968   -0.747265   -0.312104
      4          1           0        0.516339    0.708893    1.198715
      5          1           0       -0.549822    1.522988   -0.934695
      6          6           0       -2.304566    0.540620   -0.408133
      7          1           0        0.549689   -1.523020   -0.934463
      8          6           0        2.304527   -0.540716   -0.408094
      9          1           0       -2.856616    1.175130   -1.096472
     10          6           0       -3.131706   -0.474424    0.328254
     11          1           0        2.856508   -1.175386   -1.096341
     12          6           0        3.131770    0.474369    0.328119
     13          1           0       -3.657285   -1.120321   -0.379735
     14          1           0       -2.536992   -1.107420    0.984548
     15          1           0       -3.893905    0.022180    0.934440
     16          1           0        3.657438    1.120074   -0.379979
     17          1           0        2.537117    1.107554    0.984286
     18          1           0        3.893900   -0.022211    0.934413
     19          1           0       -0.516258   -0.708485    1.198940
 ---------------------------------------------------------------------
 Rotational constants (GHZ):           8.0463493           1.0147245           0.9838739
 Standard basis: 6-31+G(d,p) (6D, 7F)
 There are   193 symmetry adapted cartesian basis functions of A   symmetry.
 There are   193 symmetry adapted basis functions of A   symmetry.
   193 basis functions,   308 primitive gaussians,   193 cartesian basis functions
    27 alpha electrons       27 beta electrons
       nuclear repulsion energy       277.6047107045 Hartrees.
 NAtoms=   19 NActive=   19 NUniq=   19 SFac= 1.00D+00 NAtFMM=   60 NAOKFM=F Big=F
 Integral buffers will be    131072 words long.
 Raffenetti 2 integral format.
 Two-electron integral symmetry is turned on.
 ------------------------------------------------------------------------------
 Polarizable Continuum Model (PCM)
 =================================
 Model                : PCM.
 Atomic radii         : SMD-Coulomb.
 Polarization charges : Total charges.
 Charge compensation  : None.
 Solution method      : On-the-fly selection.
 Cavity type          : VdW (van der Waals Surface) (Alpha=1.000).
 Cavity algorithm     : GePol (No added spheres)
                        Default sphere list used, NSphG=   19.
                        Lebedev-Laikov grids with approx.  5.0 points / Ang**2.
                        Smoothing algorithm: York/Karplus (Gamma=1.0000).
                        Polarization charges: spherical gaussians, with
                                              point-specific exponents (IZeta= 3).
                        Self-potential: point-specific (ISelfS= 7).
                        Self-field    : sphere-specific E.n sum rule (ISelfD= 2).
 1st derivatives      : Analytical E(r).r(x)/FMM algorithm (CHGder, D1EAlg=3).
                        Cavity 1st derivative terms included.
 Solvent              : Ethanol, Eps=  24.852000 Eps(inf)=   1.852593
 ------------------------------------------------------------------------------
 Spheres list:
 ISph  on   Nord     Re0    Alpha      Xe            Ye            Ze
    1   C      1    1.8500  1.000      0.000011      0.000123      0.548549
    2   C      2    1.8500  1.000     -0.988023      0.747298     -0.312201
    3   C      3    1.8500  1.000      0.987968     -0.747265     -0.312104
    4   H      4    1.2000  1.000      0.516339      0.708893      1.198715
    5   H      5    1.2000  1.000     -0.549822      1.522988     -0.934695
    6   C      6    1.8500  1.000     -2.304566      0.540620     -0.408133
    7   H      7    1.2000  1.000      0.549689     -1.523020     -0.934463
    8   C      8    1.8500  1.000      2.304527     -0.540716     -0.408094
    9   H      9    1.2000  1.000     -2.856616      1.175130     -1.096472
   10   C     10    1.8500  1.000     -3.131706     -0.474424      0.328254
   11   H     11    1.2000  1.000      2.856508     -1.175386     -1.096341
   12   C     12    1.8500  1.000      3.131770      0.474369      0.328119
   13   H     13    1.2000  1.000     -3.657285     -1.120321     -0.379735
   14   H     14    1.2000  1.000     -2.536992     -1.107420      0.984548
   15   H     15    1.2000  1.000     -3.893905      0.022180      0.934440
   16   H     16    1.2000  1.000      3.657438      1.120074     -0.379979
   17   H     17    1.2000  1.000      2.537117      1.107554      0.984286
   18   H     18    1.2000  1.000      3.893900     -0.022211      0.934413
   19   H     19    1.2000  1.000     -0.516258     -0.708485      1.198940
 ------------------------------------------------------------------------------
 ------------------------------------------------------------------------------
 Atomic radii for non-electrostatic terms: SMD-CDS.
 ------------------------------------------------------------------------------
 Nuclear repulsion after PCM non-electrostatic terms =      277.6032519397 Hartrees.
 One-electron integrals computed using PRISM.
 NBasis=   193 RedAO= T EigKep=  2.74D-05  NBF=   193
 NBsUse=   193 1.00D-06 EigRej= -1.00D+00 NBFU=   193
 Initial guess from the checkpoint file:  "bisaliloETBG.chk"
 B after Tr=    -0.000000    0.000000    0.000000
         Rot=    1.000000   -0.000000   -0.000000   -0.000000 Ang=   0.00 deg.
 Requested convergence on RMS density matrix=1.00D-08 within  32 cycles.
 Requested convergence on MAX density matrix=1.00D-06.
 Requested convergence on             energy=1.00D-06.
 No special actions if energy rises.
 Inv3:  Mode=1 IEnd=     6403563.
 Iteration    1 A*A^-1 deviation from unit magnitude is 3.11D-15 for   1452.
 Iteration    1 A*A^-1 deviation from orthogonality  is 2.32D-15 for   1455    121.
 Iteration    1 A^-1*A deviation from unit magnitude is 3.44D-15 for   1455.
 Iteration    1 A^-1*A deviation from orthogonality  is 1.72D-15 for    116     84.
 Error on total polarization charges =  0.05359
 SCF Done:  E(RM052X) =  -273.909549639     A.U. after   10 cycles
            NFock= 10  Conv=0.66D-08     -V/T= 2.0099
 SMD-CDS (non-electrostatic) energy       (kcal/mol) =      -0.92
 (included in total energy above)
 QCSCF skips out because SCF is already converged.

 **********************************************************************

            Population analysis using the SCF density.

 **********************************************************************

 Orbital symmetries:
       Occupied  (A) (A) (A) (A) (A) (A) (A) (A) (A) (A) (A) (A)
                 (A) (A) (A) (A) (A) (A) (A) (A) (A) (A) (A) (A)
                 (A) (A) (A)
       Virtual   (A) (A) (A) (A) (A) (A) (A) (A) (A) (A) (A) (A)
                 (A) (A) (A) (A) (A) (A) (A) (A) (A) (A) (A) (A)
                 (A) (A) (A) (A) (A) (A) (A) (A) (A) (A) (A) (A)
                 (A) (A) (A) (A) (A) (A) (A) (A) (A) (A) (A) (A)
                 (A) (A) (A) (A) (A) (A) (A) (A) (A) (A) (A) (A)
                 (A) (A) (A) (A) (A) (A) (A) (A) (A) (A) (A) (A)
                 (A) (A) (A) (A) (A) (A) (A) (A) (A) (A) (A) (A)
                 (A) (A) (A) (A) (A) (A) (A) (A) (A) (A) (A) (A)
                 (A) (A) (A) (A) (A) (A) (A) (A) (A) (A) (A) (A)
                 (A) (A) (A) (A) (A) (A) (A) (A) (A) (A) (A) (A)
                 (A) (A) (A) (A) (A) (A) (A) (A) (A) (A) (A) (A)
                 (A) (A) (A) (A) (A) (A) (A) (A) (A) (A) (A) (A)
                 (A) (A) (A) (A) (A) (A) (A) (A) (A) (A) (A) (A)
                 (A) (A) (A) (A) (A) (A) (A) (A) (A) (A)
 The electronic state is 1-A.
 Alpha  occ. eigenvalues --  -10.57336 -10.57336 -10.57108 -10.57106 -10.56816
 Alpha  occ. eigenvalues --  -10.55832 -10.55832  -0.92372  -0.88775  -0.82881
 Alpha  occ. eigenvalues --   -0.77738  -0.73822  -0.62009  -0.59758  -0.56799
 Alpha  occ. eigenvalues --   -0.53151  -0.48951  -0.48609  -0.47329  -0.47273
 Alpha  occ. eigenvalues --   -0.44276  -0.43180  -0.41439  -0.39788  -0.39310
 Alpha  occ. eigenvalues --   -0.31018  -0.29296
 Alpha virt. eigenvalues --    0.04602   0.05163   0.06892   0.07238   0.07700
 Alpha virt. eigenvalues --    0.08586   0.09392   0.09696   0.09863   0.11225
 Alpha virt. eigenvalues --    0.11298   0.12368   0.12632   0.12644   0.14057
 Alpha virt. eigenvalues --    0.15545   0.16254   0.17217   0.17784   0.17890
 Alpha virt. eigenvalues --    0.19082   0.20406   0.21042   0.21536   0.21842
 Alpha virt. eigenvalues --    0.22381   0.24193   0.24269   0.25818   0.26148
 Alpha virt. eigenvalues --    0.26929   0.29786   0.31564   0.32056   0.32405
 Alpha virt. eigenvalues --    0.33160   0.33175   0.33691   0.35013   0.35028
 Alpha virt. eigenvalues --    0.36430   0.39905   0.41915   0.43419   0.45002
 Alpha virt. eigenvalues --    0.49377   0.54354   0.56621   0.66169   0.66625
 Alpha virt. eigenvalues --    0.69664   0.70047   0.72815   0.73436   0.76331
 Alpha virt. eigenvalues --    0.77430   0.78998   0.79202   0.79669   0.82228
 Alpha virt. eigenvalues --    0.82427   0.84069   0.84603   0.88559   0.92399
 Alpha virt. eigenvalues --    0.95532   1.01422   1.02153   1.05531   1.05885
 Alpha virt. eigenvalues --    1.06464   1.07009   1.08471   1.09358   1.11152
 Alpha virt. eigenvalues --    1.11859   1.12691   1.20218   1.20722   1.25538
 Alpha virt. eigenvalues --    1.26162   1.27470   1.30434   1.32265   1.35956
 Alpha virt. eigenvalues --    1.38396   1.39532   1.42887   1.47658   1.48440
 Alpha virt. eigenvalues --    1.49020   1.54582   1.63290   1.74073   1.74880
 Alpha virt. eigenvalues --    1.79396   1.82934   1.86059   1.89777   1.91871
 Alpha virt. eigenvalues --    1.93339   1.99316   2.02882   2.05732   2.06476
 Alpha virt. eigenvalues --    2.09346   2.09695   2.13366   2.13500   2.15056
 Alpha virt. eigenvalues --    2.21034   2.21130   2.24250   2.25580   2.30080
 Alpha virt. eigenvalues --    2.33244   2.34088   2.35290   2.40521   2.42785
 Alpha virt. eigenvalues --    2.46340   2.46801   2.47906   2.50211   2.54379
 Alpha virt. eigenvalues --    2.54946   2.55640   2.57174   2.58015   2.59629
 Alpha virt. eigenvalues --    2.62015   2.66746   2.70490   2.72204   2.75162
 Alpha virt. eigenvalues --    2.76863   2.77975   2.78226   2.87685   2.89727
 Alpha virt. eigenvalues --    2.90155   2.92361   2.96739   2.99906   3.01324
 Alpha virt. eigenvalues --    3.14942   3.16021   3.29252   3.30988   3.37234
 Alpha virt. eigenvalues --    3.38928   3.41278   3.50601   3.51069   3.54063
 Alpha virt. eigenvalues --    3.54281   3.57818   3.66135   3.70857   4.34778
 Alpha virt. eigenvalues --    4.37261   4.51077   4.54431   4.57211   4.70548
 Alpha virt. eigenvalues --    4.76514
          Condensed to atoms (all electrons):
               1          2          3          4          5          6
     1  C    5.290407   0.252802   0.252901   0.396093  -0.029933  -0.071225
     2  C    0.252802   5.970650  -0.392865   0.028434   0.278598  -0.012980
     3  C    0.252901  -0.392865   5.971087  -0.143763   0.054240   0.184298
     4  H    0.396093   0.028434  -0.143763   0.532805  -0.003789  -0.007956
     5  H   -0.029933   0.278598   0.054240  -0.003789   0.528193   0.025765
     6  C   -0.071225  -0.012980   0.184298  -0.007956   0.025765   5.588419
     7  H   -0.029929   0.054233   0.278570   0.003905  -0.000440  -0.007727
     8  C   -0.071338   0.184373  -0.013376   0.052018  -0.007730  -0.047972
     9  H   -0.007218   0.011906   0.002865  -0.000138  -0.007981   0.322822
    10  C   -0.110625  -0.123997   0.033681   0.005377  -0.003533   0.304380
    11  H   -0.007213   0.002863   0.011907   0.000112  -0.000021   0.000798
    12  C   -0.110647   0.033674  -0.124046  -0.005952   0.001256  -0.006135
    13  H    0.005447  -0.012898  -0.002341  -0.000016  -0.000106  -0.042480
    14  H   -0.032909   0.038962   0.009696  -0.000059   0.000049  -0.106808
    15  H   -0.002415   0.010521  -0.000850   0.000033  -0.000123  -0.058431
    16  H    0.005443  -0.002339  -0.012894  -0.000063  -0.000013  -0.001965
    17  H   -0.032905   0.009693   0.038963   0.003248   0.000006   0.002163
    18  H   -0.002413  -0.000851   0.010522  -0.000142   0.000001   0.000990
    19  H    0.396100  -0.143751   0.028442  -0.028680   0.003905   0.051996
               7          8          9         10         11         12
     1  C   -0.029929  -0.071338  -0.007218  -0.110625  -0.007213  -0.110647
     2  C    0.054233   0.184373   0.011906  -0.123997   0.002863   0.033674
     3  C    0.278570  -0.013376   0.002865   0.033681   0.011907  -0.124046
     4  H    0.003905   0.052018  -0.000138   0.005377   0.000112  -0.005952
     5  H   -0.000440  -0.007730  -0.007981  -0.003533  -0.000021   0.001256
     6  C   -0.007727  -0.047972   0.322822   0.304380   0.000798  -0.006135
     7  H    0.528194   0.025792  -0.000021   0.001255  -0.007981  -0.003533
     8  C    0.025792   5.588789   0.000798  -0.006144   0.322822   0.304435
     9  H   -0.000021   0.000798   0.526498  -0.012410  -0.000000   0.000026
    10  C    0.001255  -0.006144  -0.012410   5.310530   0.000026   0.000630
    11  H   -0.007981   0.322822  -0.000000   0.000026   0.526498  -0.012413
    12  C   -0.003533   0.304435   0.000026   0.000630  -0.012413   5.310547
    13  H   -0.000013  -0.001966  -0.002464   0.415713   0.000000  -0.000049
    14  H    0.000006   0.002163   0.003655   0.446908  -0.000000   0.000254
    15  H    0.000001   0.000990  -0.002033   0.408496  -0.000000   0.000010
    16  H   -0.000106  -0.042483   0.000000  -0.000049  -0.002465   0.415711
    17  H    0.000049  -0.106809  -0.000000   0.000254   0.003655   0.446907
    18  H   -0.000123  -0.058433  -0.000000   0.000010  -0.002032   0.408496
    19  H   -0.003788  -0.007963   0.000112  -0.005954  -0.000138   0.005379
              13         14         15         16         17         18
     1  C    0.005447  -0.032909  -0.002415   0.005443  -0.032905  -0.002413
     2  C   -0.012898   0.038962   0.010521  -0.002339   0.009693  -0.000851
     3  C   -0.002341   0.009696  -0.000850  -0.012894   0.038963   0.010522
     4  H   -0.000016  -0.000059   0.000033  -0.000063   0.003248  -0.000142
     5  H   -0.000106   0.000049  -0.000123  -0.000013   0.000006   0.000001
     6  C   -0.042480  -0.106808  -0.058431  -0.001965   0.002163   0.000990
     7  H   -0.000013   0.000006   0.000001  -0.000106   0.000049  -0.000123
     8  C   -0.001966   0.002163   0.000990  -0.042483  -0.106809  -0.058433
     9  H   -0.002464   0.003655  -0.002033   0.000000  -0.000000  -0.000000
    10  C    0.415713   0.446908   0.408496  -0.000049   0.000254   0.000010
    11  H    0.000000  -0.000000  -0.000000  -0.002465   0.003655  -0.002032
    12  C   -0.000049   0.000254   0.000010   0.415711   0.446907   0.408496
    13  H    0.517065  -0.025854  -0.028215  -0.000000   0.000000   0.000000
    14  H   -0.025854   0.521683  -0.025153   0.000000  -0.000000  -0.000000
    15  H   -0.028215  -0.025153   0.518734   0.000000  -0.000000  -0.000000
    16  H   -0.000000   0.000000   0.000000   0.517067  -0.025853  -0.028215
    17  H    0.000000  -0.000000  -0.000000  -0.025853   0.521684  -0.025153
    18  H    0.000000  -0.000000  -0.000000  -0.028215  -0.025153   0.518733
    19  H   -0.000063   0.003248  -0.000142  -0.000016  -0.000059   0.000033
              19
     1  C    0.396100
     2  C   -0.143751
     3  C    0.028442
     4  H   -0.028680
     5  H    0.003905
     6  C    0.051996
     7  H   -0.003788
     8  C   -0.007963
     9  H    0.000112
    10  C   -0.005954
    11  H   -0.000138
    12  C    0.005379
    13  H   -0.000063
    14  H    0.003248
    15  H   -0.000142
    16  H   -0.000016
    17  H   -0.000059
    18  H    0.000033
    19  H    0.532802
 Mulliken charges:
               1
     1  C   -0.090422
     2  C   -0.187028
     3  C   -0.187033
     4  H    0.168535
     5  H    0.161656
     6  C   -0.117953
     7  H    0.161655
     8  C   -0.117966
     9  H    0.163582
    10  C   -0.664547
    11  H    0.163582
    12  C   -0.664550
    13  H    0.178242
    14  H    0.164158
    15  H    0.178576
    16  H    0.178241
    17  H    0.164157
    18  H    0.178577
    19  H    0.168539
 Sum of Mulliken charges =  -0.00000
 Mulliken charges with hydrogens summed into heavy atoms:
               1
     1  C    0.246652
     2  C   -0.025373
     3  C   -0.025378
     6  C    0.045628
     8  C    0.045615
    10  C   -0.143571
    12  C   -0.143575
 Electronic spatial extent (au):  <R**2>=           1254.7704
 Charge=             -0.0000 electrons
 Dipole moment (field-independent basis, Debye):
    X=              0.0000    Y=             -0.0000    Z=              0.4308  Tot=              0.4308
 Quadrupole moment (field-independent basis, Debye-Ang):
   XX=            -39.5351   YY=            -45.5857   ZZ=            -45.9165
   XY=              1.7477   XZ=             -0.0000   YZ=             -0.0000
 Traceless Quadrupole moment (field-independent basis, Debye-Ang):
   XX=              4.1440   YY=             -1.9066   ZZ=             -2.2374
   XY=              1.7477   XZ=             -0.0000   YZ=             -0.0000
 Octapole moment (field-independent basis, Debye-Ang**2):
  XXX=              0.0004  YYY=             -0.0007  ZZZ=              3.5368  XYY=              0.0009
  XXY=             -0.0010  XXZ=             -2.4342  XZZ=             -0.0006  YZZ=              0.0006
  YYZ=             -3.5862  XYZ=              3.9013
 Hexadecapole moment (field-independent basis, Debye-Ang**3):
 XXXX=          -1346.7404 YYYY=           -186.9883 ZZZZ=           -141.0306 XXXY=             -1.2805
 XXXZ=              0.0045 YYYX=              9.1358 YYYZ=              0.0037 ZZZX=              0.0052
 ZZZY=             -0.0001 XXYY=           -271.6116 XXZZ=           -257.1043 YYZZ=            -47.3313
 XXYZ=              0.0006 YYXZ=              0.0016 ZZXY=             -1.5494
 N-N= 2.776032519397D+02 E-N=-1.187925694996D+03  KE= 2.712307824695D+02
 D1PCM: PCM CHGder 1st derivatives, ID1Alg=3 FixD1E=F DoIter=F DoCFld=F I1PDM=0.
 Calling FoFJK, ICntrl=      2127 FMM=F ISym2X=0 I1Cent= 0 IOpClX= 0 NMat=1 NMatS=1 NMatT=0.
 ***** Axes restored to original set *****
 -------------------------------------------------------------------
 Center     Atomic                   Forces (Hartrees/Bohr)
 Number     Number              X              Y              Z
 -------------------------------------------------------------------
      1        6          -0.000000019   -0.000000178    0.001153541
      2        6          -0.002381016    0.000467473    0.000260851
      3        6           0.002381068   -0.000467701    0.000260845
      4        1          -0.000282807   -0.000332585   -0.000211466
      5        1          -0.000197421   -0.000850925   -0.000335690
      6        6           0.002655505    0.000924597    0.000163946
      7        1           0.000197384    0.000851103   -0.000335390
      8        6          -0.002655499   -0.000924547    0.000163498
      9        1           0.000435840   -0.000353553   -0.000348428
     10        6          -0.001184202   -0.000177153    0.000074980
     11        1          -0.000435827    0.000353702   -0.000348310
     12        6           0.001184173    0.000176960    0.000075050
     13        1           0.000458337   -0.000055766   -0.000459420
     14        1          -0.000280896    0.000379249    0.000341150
     15        1           0.000536122   -0.000344357   -0.000062733
     16        1          -0.000458338    0.000055876   -0.000459432
     17        1           0.000280904   -0.000379237    0.000341190
     18        1          -0.000536112    0.000344391   -0.000062696
     19        1           0.000282805    0.000332648   -0.000211487
 -------------------------------------------------------------------
 Cartesian Forces:  Max     0.002655505 RMS     0.000810345

 GradGradGradGradGradGradGradGradGradGradGradGradGradGradGradGradGradGrad
 Berny optimization.
 FormGI is forming the generalized inverse of G from B-inverse, IUseBI=4.
 Internal  Forces:  Max     0.002655428 RMS     0.000510651
 Search for a local minimum.
 Step number   1 out of a maximum of   90
 All quantities printed in internal units (Hartrees-Bohrs-Radians)
 Mixed Optimization -- En-DIIS/RFO-DIIS
 Second derivative matrix not updated -- first step.
 ITU=  0
     Eigenvalues ---    0.00654   0.00654   0.00736   0.00736   0.01598
     Eigenvalues ---    0.01598   0.01633   0.01633   0.02934   0.02934
     Eigenvalues ---    0.05141   0.06503   0.07001   0.07001   0.07362
     Eigenvalues ---    0.07362   0.09658   0.13081   0.15997   0.15997
     Eigenvalues ---    0.16000   0.16000   0.16000   0.16000   0.16000
     Eigenvalues ---    0.16000   0.16000   0.16000   0.21933   0.22000
     Eigenvalues ---    0.22000   0.22001   0.22001   0.31508   0.31508
     Eigenvalues ---    0.32143   0.32143   0.34449   0.34449   0.34467
     Eigenvalues ---    0.34467   0.34624   0.34624   0.34973   0.34973
     Eigenvalues ---    0.35181   0.35181   0.35183   0.35183   0.58085
     Eigenvalues ---    0.58085
 RFO step:  Lambda=-8.35771995D-05 EMin= 6.54378991D-03
 Linear search not attempted -- first point.
 Iteration  1 RMS(Cart)=  0.01877285 RMS(Int)=  0.00008873
 Iteration  2 RMS(Cart)=  0.00014977 RMS(Int)=  0.00000394
 Iteration  3 RMS(Cart)=  0.00000000 RMS(Int)=  0.00000394
 Variable       Old X    -DE/DX   Delta X   Delta X   Delta X     New X
                                 (Linear)    (Quad)   (Total)
    R1        2.85053   0.00027   0.00000   0.00085   0.00085   2.85138
    R2        2.85053   0.00027   0.00000   0.00085   0.00085   2.85138
    R3        2.06289   0.00022   0.00000   0.00065   0.00065   2.06354
    R4        2.06289   0.00022   0.00000   0.00065   0.00065   2.06354
    R5        2.05382   0.00088   0.00000   0.00251   0.00251   2.05633
    R6        2.52489   0.00266   0.00000   0.00457   0.00457   2.52946
    R7        2.05382   0.00088   0.00000   0.00251   0.00251   2.05633
    R8        2.52489   0.00266   0.00000   0.00457   0.00457   2.52946
    R9        2.05379   0.00065   0.00000   0.00185   0.00185   2.05564
   R10        2.83883  -0.00047   0.00000  -0.00145  -0.00145   2.83738
   R11        2.05379   0.00065   0.00000   0.00185   0.00185   2.05564
   R12        2.83883  -0.00047   0.00000  -0.00145  -0.00145   2.83738
   R13        2.06548   0.00048   0.00000   0.00139   0.00139   2.06688
   R14        2.05719   0.00057   0.00000   0.00164   0.00164   2.05883
   R15        2.06580   0.00050   0.00000   0.00145   0.00145   2.06725
   R16        2.06548   0.00048   0.00000   0.00139   0.00139   2.06688
   R17        2.05719   0.00057   0.00000   0.00164   0.00164   2.05883
   R18        2.06580   0.00050   0.00000   0.00145   0.00145   2.06725
    A1        1.92714  -0.00021   0.00000  -0.00190  -0.00191   1.92523
    A2        1.90505  -0.00008   0.00000  -0.00111  -0.00111   1.90394
    A3        1.93022   0.00005   0.00000  -0.00013  -0.00013   1.93009
    A4        1.93022   0.00005   0.00000  -0.00013  -0.00013   1.93009
    A5        1.90505  -0.00008   0.00000  -0.00111  -0.00111   1.90394
    A6        1.86534   0.00028   0.00000   0.00457   0.00457   1.86991
    A7        2.00013   0.00006   0.00000   0.00055   0.00054   2.00067
    A8        2.22656   0.00014   0.00000   0.00069   0.00068   2.22723
    A9        2.05620  -0.00020   0.00000  -0.00105  -0.00106   2.05513
   A10        2.00012   0.00006   0.00000   0.00055   0.00054   2.00067
   A11        2.22656   0.00014   0.00000   0.00068   0.00067   2.22723
   A12        2.05620  -0.00020   0.00000  -0.00105  -0.00106   2.05514
   A13        2.04393   0.00007   0.00000   0.00053   0.00053   2.04445
   A14        2.22921   0.00008   0.00000   0.00037   0.00037   2.22958
   A15        2.01005  -0.00015   0.00000  -0.00090  -0.00090   2.00915
   A16        2.04393   0.00007   0.00000   0.00053   0.00053   2.04445
   A17        2.22921   0.00008   0.00000   0.00037   0.00037   2.22958
   A18        2.01005  -0.00015   0.00000  -0.00090  -0.00090   2.00915
   A19        1.92466  -0.00034   0.00000  -0.00275  -0.00276   1.92190
   A20        1.96884   0.00031   0.00000   0.00315   0.00315   1.97199
   A21        1.92706  -0.00027   0.00000  -0.00225  -0.00225   1.92480
   A22        1.88556   0.00021   0.00000   0.00234   0.00234   1.88790
   A23        1.86750  -0.00011   0.00000  -0.00309  -0.00310   1.86439
   A24        1.88677   0.00020   0.00000   0.00245   0.00245   1.88922
   A25        1.92467  -0.00034   0.00000  -0.00275  -0.00276   1.92191
   A26        1.96884   0.00031   0.00000   0.00315   0.00315   1.97199
   A27        1.92706  -0.00027   0.00000  -0.00225  -0.00225   1.92480
   A28        1.88556   0.00021   0.00000   0.00234   0.00234   1.88790
   A29        1.86750  -0.00011   0.00000  -0.00309  -0.00310   1.86439
   A30        1.88677   0.00020   0.00000   0.00245   0.00244   1.88922
    D1       -1.10535  -0.00019   0.00000  -0.01953  -0.01953  -1.12489
    D2        2.00879  -0.00006   0.00000  -0.01132  -0.01132   1.99747
    D3        1.02000  -0.00031   0.00000  -0.02163  -0.02163   0.99837
    D4       -2.14904  -0.00018   0.00000  -0.01342  -0.01342  -2.16245
    D5        3.06741   0.00001   0.00000  -0.01680  -0.01680   3.05061
    D6       -0.10163   0.00014   0.00000  -0.00859  -0.00859  -0.11021
    D7       -1.10522  -0.00019   0.00000  -0.01955  -0.01955  -1.12477
    D8        2.00894  -0.00006   0.00000  -0.01134  -0.01134   1.99760
    D9        3.06755   0.00001   0.00000  -0.01681  -0.01682   3.05074
   D10       -0.10148   0.00014   0.00000  -0.00860  -0.00860  -0.11008
   D11        1.02014  -0.00031   0.00000  -0.02164  -0.02164   0.99850
   D12       -2.14889  -0.00018   0.00000  -0.01343  -0.01343  -2.16232
   D13       -3.12800  -0.00012   0.00000  -0.00632  -0.00632  -3.13432
   D14        0.01429  -0.00010   0.00000  -0.00503  -0.00502   0.00927
   D15       -0.01463   0.00002   0.00000   0.00215   0.00214  -0.01248
   D16        3.12767   0.00004   0.00000   0.00344   0.00344   3.13111
   D17       -3.12801  -0.00012   0.00000  -0.00631  -0.00631  -3.13433
   D18        0.01429  -0.00010   0.00000  -0.00502  -0.00502   0.00927
   D19       -0.01462   0.00002   0.00000   0.00215   0.00214  -0.01248
   D20        3.12768   0.00004   0.00000   0.00344   0.00344   3.13112
   D21       -2.13970  -0.00027   0.00000  -0.00602  -0.00601  -2.14572
   D22       -0.02981  -0.00004   0.00000  -0.00282  -0.00282  -0.03263
   D23        2.08335   0.00023   0.00000   0.00088   0.00088   2.08423
   D24        1.00258  -0.00025   0.00000  -0.00475  -0.00474   0.99784
   D25        3.11247  -0.00002   0.00000  -0.00155  -0.00155   3.11092
   D26       -1.05755   0.00026   0.00000   0.00215   0.00215  -1.05540
   D27       -2.13976  -0.00027   0.00000  -0.00601  -0.00600  -2.14577
   D28       -0.02987  -0.00004   0.00000  -0.00281  -0.00281  -0.03268
   D29        2.08329   0.00023   0.00000   0.00089   0.00088   2.08418
   D30        1.00253  -0.00025   0.00000  -0.00474  -0.00473   0.99780
   D31        3.11243  -0.00002   0.00000  -0.00154  -0.00154   3.11089
   D32       -1.05760   0.00026   0.00000   0.00216   0.00216  -1.05544
         Item               Value     Threshold  Converged?
 Maximum Force            0.002655     0.000450     NO 
 RMS     Force            0.000511     0.000300     NO 
 Maximum Displacement     0.052665     0.001800     NO 
 RMS     Displacement     0.018768     0.001200     NO 
 Predicted change in Energy=-4.191680D-05
 GradGradGradGradGradGradGradGradGradGradGradGradGradGradGradGradGradGrad

                          Input orientation:                          
 ---------------------------------------------------------------------
 Center     Atomic      Atomic             Coordinates (Angstroms)
 Number     Number       Type             X           Y           Z
 ---------------------------------------------------------------------
      1          6           0       -0.000024   -0.000097    0.553575
      2          6           0        0.982952   -0.753168   -0.308614
      3          6           0       -0.982927    0.753183   -0.308514
      4          1           0       -0.521338   -0.707393    1.201940
      5          1           0        0.542118   -1.539594   -0.917956
      6          6           0        2.301247   -0.547211   -0.415155
      7          1           0       -0.542021    1.539680   -0.917714
      8          6           0       -2.301236    0.547345   -0.415115
      9          1           0        2.850378   -1.190946   -1.098796
     10          6           0        3.132738    0.475835    0.303477
     11          1           0       -2.850303    1.191236   -1.098660
     12          6           0       -3.132821   -0.475749    0.303339
     13          1           0        3.657827    1.108097   -0.418191
     14          1           0        2.544258    1.120764    0.955196
     15          1           0        3.898955   -0.016193    0.909717
     16          1           0       -3.657985   -1.107826   -0.418437
     17          1           0       -2.544398   -1.120855    0.954936
     18          1           0       -3.898980    0.016246    0.909680
     19          1           0        0.521233    0.707039    1.202160
 ---------------------------------------------------------------------
                    Distance matrix (angstroms):
                    1          2          3          4          5
     1  C    0.000000
     2  C    1.508883   0.000000
     3  C    1.508883   2.476646   0.000000
     4  H    1.091976   2.132312   2.151237   0.000000
     5  H    2.197583   1.088163   2.820286   2.513454   0.000000
     6  C    2.556095   1.338534   3.533865   3.256937   2.081386
     7  H    2.197582   2.820230   1.088163   3.089126   3.264550
     8  C    2.556097   3.533917   1.338534   2.712430   3.562699
     9  H    3.503319   2.074444   4.370173   4.110435   2.341436
    10  C    3.178562   2.550820   4.170150   3.944557   3.502166
    11  H    3.503320   4.370209   2.074443   3.784394   4.358739
    12  C    3.178566   4.170256   2.550820   2.771460   4.016031
    13  H    3.943641   3.260563   4.655598   4.835933   4.119185
    14  H    2.809093   2.747092   3.764720   3.577837   3.820310
    15  H    3.915243   3.245079   5.090068   4.483541   4.114547
    16  H    3.943672   4.655764   3.260579   3.553101   4.251683
    17  H    2.809097   3.764831   2.747092   2.079600   3.634508
    18  H    3.915218   5.090137   3.245064   3.466632   5.048192
    19  H    1.091977   2.151238   2.132314   1.757149   3.089124
                    6          7          8          9         10
     6  C    0.000000
     7  H    3.562563   0.000000
     8  C    4.730847   2.081387   0.000000
     9  H    1.087798   4.358610   5.479800   0.000000
    10  C    1.501477   4.015834   5.481748   2.196419   0.000000
    11  H    5.479767   2.341436   1.087798   6.178394   6.186644
    12  C    5.481828   3.502166   1.501477   6.186773   6.337408
    13  H    2.140179   4.251413   5.985390   2.529980   1.093745
    14  H    2.172340   3.634336   5.068074   3.107507   1.089486
    15  H    2.142414   5.048020   6.365149   2.552192   1.093941
    16  H    5.985545   4.119198   2.140180   6.544355   7.010211
    17  H    5.068185   3.820311   2.172339   5.772897   5.933270
    18  H    6.365178   4.114534   2.142413   7.144587   7.072748
    19  H    2.712435   2.513496   3.256902   3.784397   2.771470
                   11         12         13         14         15
    11  H    0.000000
    12  C    2.196419   0.000000
    13  H    6.544136   7.010142   0.000000
    14  H    5.772745   5.933212   1.768160   0.000000
    15  H    7.144505   7.072818   1.756562   1.769164   0.000000
    16  H    2.529968   1.093745   7.644045   6.732110   7.750032
    17  H    3.107506   1.089486   6.732110   5.560511   6.537516
    18  H    2.552206   1.093941   7.749885   6.537381   7.798002
    19  H    4.110411   3.944487   3.553112   2.079613   3.466640
                   16         17         18         19
    16  H    0.000000
    17  H    1.768162   0.000000
    18  H    1.756562   1.769163   0.000000
    19  H    4.835900   3.577766   4.483416   0.000000
 Stoichiometry    C7H12
 Framework group  C1[X(C7H12)]
 Deg. of freedom    51
 Full point group                 C1      NOp   1
 Largest Abelian subgroup         C1      NOp   1
 Largest concise Abelian subgroup C1      NOp   1
                         Standard orientation:                         
 ---------------------------------------------------------------------
 Center     Atomic      Atomic             Coordinates (Angstroms)
 Number     Number       Type             X           Y           Z
 ---------------------------------------------------------------------
      1          6           0        0.000011    0.000118    0.562060
      2          6           0       -0.983409    0.752608   -0.300130
      3          6           0        0.983358   -0.752584   -0.300030
      4          1           0        0.520908    0.707721    1.210425
      5          1           0       -0.543038    1.539294   -0.909471
      6          6           0       -2.301582    0.545874   -0.406671
      7          1           0        0.542916   -1.539340   -0.909229
      8          6           0        2.301546   -0.545968   -0.406630
      9          1           0       -2.851092    1.189285   -1.090312
     10          6           0       -3.132469   -0.477662    0.311961
     11          1           0        2.850993   -1.189535   -1.090175
     12          6           0        3.132527    0.477617    0.311824
     13          1           0       -3.657186   -1.110234   -0.409706
     14          1           0       -2.543609   -1.122244    0.963681
     15          1           0       -3.898976    0.013913    0.918202
     16          1           0        3.657318    1.110003   -0.409952
     17          1           0        2.543724    1.122375    0.963420
     18          1           0        3.898976   -0.013926    0.918165
     19          1           0       -0.520829   -0.707326    1.210644
 ---------------------------------------------------------------------
 Rotational constants (GHZ):           8.0267533           1.0163360           0.9834311
 Standard basis: 6-31+G(d,p) (6D, 7F)
 There are   193 symmetry adapted cartesian basis functions of A   symmetry.
 There are   193 symmetry adapted basis functions of A   symmetry.
   193 basis functions,   308 primitive gaussians,   193 cartesian basis functions
    27 alpha electrons       27 beta electrons
       nuclear repulsion energy       277.4842530936 Hartrees.
 NAtoms=   19 NActive=   19 NUniq=   19 SFac= 1.00D+00 NAtFMM=   60 NAOKFM=F Big=F
 Integral buffers will be    131072 words long.
 Raffenetti 2 integral format.
 Two-electron integral symmetry is turned on.
 ------------------------------------------------------------------------------
 Polarizable Continuum Model (PCM)
 =================================
 Model                : PCM.
 Atomic radii         : SMD-Coulomb.
 Polarization charges : Total charges.
 Charge compensation  : None.
 Solution method      : On-the-fly selection.
 Cavity type          : VdW (van der Waals Surface) (Alpha=1.000).
 Cavity algorithm     : GePol (No added spheres)
                        Default sphere list used, NSphG=   19.
                        Lebedev-Laikov grids with approx.  5.0 points / Ang**2.
                        Smoothing algorithm: York/Karplus (Gamma=1.0000).
                        Polarization charges: spherical gaussians, with
                                              point-specific exponents (IZeta= 3).
                        Self-potential: point-specific (ISelfS= 7).
                        Self-field    : sphere-specific E.n sum rule (ISelfD= 2).
 1st derivatives      : Analytical E(r).r(x)/FMM algorithm (CHGder, D1EAlg=3).
                        Cavity 1st derivative terms included.
 Solvent              : Ethanol, Eps=  24.852000 Eps(inf)=   1.852593
 ------------------------------------------------------------------------------
 Spheres list:
 ISph  on   Nord     Re0    Alpha      Xe            Ye            Ze
    1   C      1    1.8500  1.000      0.000011      0.000118      0.562060
    2   C      2    1.8500  1.000     -0.983409      0.752608     -0.300130
    3   C      3    1.8500  1.000      0.983358     -0.752584     -0.300030
    4   H      4    1.2000  1.000      0.520908      0.707721      1.210425
    5   H      5    1.2000  1.000     -0.543038      1.539294     -0.909471
    6   C      6    1.8500  1.000     -2.301582      0.545874     -0.406671
    7   H      7    1.2000  1.000      0.542916     -1.539340     -0.909229
    8   C      8    1.8500  1.000      2.301546     -0.545968     -0.406630
    9   H      9    1.2000  1.000     -2.851092      1.189285     -1.090312
   10   C     10    1.8500  1.000     -3.132469     -0.477662      0.311961
   11   H     11    1.2000  1.000      2.850993     -1.189535     -1.090175
   12   C     12    1.8500  1.000      3.132527      0.477617      0.311824
   13   H     13    1.2000  1.000     -3.657186     -1.110234     -0.409706
   14   H     14    1.2000  1.000     -2.543609     -1.122244      0.963681
   15   H     15    1.2000  1.000     -3.898976      0.013913      0.918202
   16   H     16    1.2000  1.000      3.657318      1.110003     -0.409952
   17   H     17    1.2000  1.000      2.543724      1.122375      0.963420
   18   H     18    1.2000  1.000      3.898976     -0.013926      0.918165
   19   H     19    1.2000  1.000     -0.520829     -0.707326      1.210644
 ------------------------------------------------------------------------------
 ------------------------------------------------------------------------------
 Atomic radii for non-electrostatic terms: SMD-CDS.
 ------------------------------------------------------------------------------
 Nuclear repulsion after PCM non-electrostatic terms =      277.4827883563 Hartrees.
 One-electron integrals computed using PRISM.
 NBasis=   193 RedAO= T EigKep=  2.78D-05  NBF=   193
 NBsUse=   193 1.00D-06 EigRej= -1.00D+00 NBFU=   193
 Initial guess from the checkpoint file:  "bisaliloETBG.chk"
 B after Tr=    -0.000000   -0.000000    0.000000
         Rot=    1.000000    0.000000    0.000000    0.000391 Ang=   0.04 deg.
 ExpMin= 4.38D-02 ExpMax= 3.05D+03 ExpMxC= 4.57D+02 IAcc=2 IRadAn=         4 AccDes= 0.00D+00
 Harris functional with IExCor= 1009 and IRadAn=       4 diagonalized for initial guess.
 HarFok:  IExCor= 1009 AccDes= 0.00D+00 IRadAn=         4 IDoV= 1 UseB2=F ITyADJ=14
 ICtDFT=  3500011 ScaDFX=  1.000000  1.000000  1.000000  1.000000
 FoFCou: FMM=F IPFlag=           0 FMFlag=      100000 FMFlg1=           0
         NFxFlg=           0 DoJE=T BraDBF=F KetDBF=T FulRan=T
         wScrn=  0.000000 ICntrl=       500 IOpCl=  0 I1Cent=   200000004 NGrid=           0
         NMat0=    1 NMatS0=      1 NMatT0=    0 NMatD0=    1 NMtDS0=    0 NMtDT0=    0
 Petite list used in FoFCou.
 Requested convergence on RMS density matrix=1.00D-08 within  32 cycles.
 Requested convergence on MAX density matrix=1.00D-06.
 Requested convergence on             energy=1.00D-06.
 No special actions if energy rises.
 Inv3:  Mode=1 IEnd=     6421107.
 Iteration    1 A*A^-1 deviation from unit magnitude is 4.66D-15 for   1118.
 Iteration    1 A*A^-1 deviation from orthogonality  is 1.96D-15 for   1320    371.
 Iteration    1 A^-1*A deviation from unit magnitude is 4.66D-15 for   1118.
 Iteration    1 A^-1*A deviation from orthogonality  is 1.95D-15 for   1454    298.
 Error on total polarization charges =  0.05369
 SCF Done:  E(RM052X) =  -273.909597095     A.U. after   10 cycles
            NFock= 10  Conv=0.39D-08     -V/T= 2.0100
 SMD-CDS (non-electrostatic) energy       (kcal/mol) =      -0.92
 (included in total energy above)
 QCSCF skips out because SCF is already converged.
 D1PCM: PCM CHGder 1st derivatives, ID1Alg=3 FixD1E=F DoIter=F DoCFld=F I1PDM=0.
 Calling FoFJK, ICntrl=      2127 FMM=F ISym2X=0 I1Cent= 0 IOpClX= 0 NMat=1 NMatS=1 NMatT=0.
 ***** Axes restored to original set *****
 -------------------------------------------------------------------
 Center     Atomic                   Forces (Hartrees/Bohr)
 Number     Number              X              Y              Z
 -------------------------------------------------------------------
      1        6          -0.000000094   -0.000000069    0.000220295
      2        6           0.000129529   -0.000274427    0.000072051
      3        6          -0.000129431    0.000274426    0.000072156
      4        1          -0.000071433    0.000000069   -0.000150245
      5        1           0.000097386   -0.000005202    0.000045314
      6        6          -0.000162298    0.000049775   -0.000013232
      7        1          -0.000097409    0.000005260    0.000045385
      8        6           0.000162248   -0.000049834   -0.000013281
      9        1          -0.000061573    0.000068393   -0.000027092
     10        6          -0.000320111    0.000074659    0.000093162
     11        1           0.000061569   -0.000068345   -0.000027056
     12        6           0.000320144   -0.000074768    0.000093124
     13        1           0.000095083   -0.000020876   -0.000019010
     14        1          -0.000016039   -0.000028837   -0.000075571
     15        1           0.000096135   -0.000003965   -0.000035475
     16        1          -0.000095033    0.000020830   -0.000018988
     17        1           0.000015977    0.000028861   -0.000075583
     18        1          -0.000096151    0.000004001   -0.000035545
     19        1           0.000071501    0.000000050   -0.000150409
 -------------------------------------------------------------------
 Cartesian Forces:  Max     0.000320144 RMS     0.000109688

 GradGradGradGradGradGradGradGradGradGradGradGradGradGradGradGradGradGrad
 Berny optimization.
 Using GEDIIS/GDIIS optimizer.
 FormGI is forming the generalized inverse of G from B-inverse, IUseBI=4.
 Internal  Forces:  Max     0.000341458 RMS     0.000095508
 Search for a local minimum.
 Step number   2 out of a maximum of   90
 All quantities printed in internal units (Hartrees-Bohrs-Radians)
 Mixed Optimization -- En-DIIS/RFO-DIIS
 Swapping is turned off.
 Update second derivatives using D2CorX and points    1    2
 DE= -4.75D-05 DEPred=-4.19D-05 R= 1.13D+00
 TightC=F SS=  1.41D+00  RLast= 5.95D-02 DXNew= 6.7272D-02 1.7857D-01
 Trust test= 1.13D+00 RLast= 5.95D-02 DXMaxT set to 6.73D-02
 ITU=  1  0
     Eigenvalues ---    0.00447   0.00654   0.00735   0.00736   0.01596
     Eigenvalues ---    0.01624   0.01634   0.01733   0.02932   0.02934
     Eigenvalues ---    0.05166   0.06323   0.06971   0.06978   0.07246
     Eigenvalues ---    0.07395   0.09632   0.13051   0.15897   0.15998
     Eigenvalues ---    0.16000   0.16000   0.16000   0.16000   0.16000
     Eigenvalues ---    0.16000   0.16000   0.16220   0.21942   0.22000
     Eigenvalues ---    0.22000   0.22000   0.22417   0.31508   0.31545
     Eigenvalues ---    0.31994   0.32143   0.34366   0.34449   0.34461
     Eigenvalues ---    0.34467   0.34624   0.34651   0.34973   0.35020
     Eigenvalues ---    0.35181   0.35182   0.35183   0.36310   0.58085
     Eigenvalues ---    0.67280
 En-DIIS/RFO-DIIS/Sim-DIIS IScMMF=       -3 using points:     2    1
 RFO step:  Lambda=-2.39130308D-05.
 DidBck=F Rises=F RFO-DIIS coefs:    2.01584   -1.01584
 Iteration  1 RMS(Cart)=  0.02300391 RMS(Int)=  0.00010585
 Iteration  2 RMS(Cart)=  0.00022857 RMS(Int)=  0.00000437
 Iteration  3 RMS(Cart)=  0.00000001 RMS(Int)=  0.00000437
 Variable       Old X    -DE/DX   Delta X   Delta X   Delta X     New X
                                 (Linear)    (Quad)   (Total)
    R1        2.85138  -0.00002   0.00086  -0.00071   0.00015   2.85153
    R2        2.85138  -0.00002   0.00086  -0.00071   0.00015   2.85153
    R3        2.06354  -0.00006   0.00066  -0.00068  -0.00002   2.06352
    R4        2.06354  -0.00006   0.00066  -0.00068  -0.00002   2.06352
    R5        2.05633  -0.00006   0.00255  -0.00209   0.00045   2.05678
    R6        2.52946  -0.00034   0.00464  -0.00415   0.00049   2.52995
    R7        2.05633  -0.00006   0.00255  -0.00209   0.00045   2.05678
    R8        2.52946  -0.00034   0.00464  -0.00415   0.00049   2.52995
    R9        2.05564  -0.00005   0.00188  -0.00157   0.00031   2.05595
   R10        2.83738  -0.00011  -0.00148   0.00071  -0.00077   2.83661
   R11        2.05564  -0.00005   0.00188  -0.00157   0.00031   2.05595
   R12        2.83738  -0.00011  -0.00147   0.00071  -0.00077   2.83661
   R13        2.06688   0.00004   0.00142  -0.00091   0.00050   2.06738
   R14        2.05883  -0.00006   0.00167  -0.00144   0.00022   2.05905
   R15        2.06725   0.00005   0.00148  -0.00091   0.00056   2.06781
   R16        2.06688   0.00004   0.00142  -0.00091   0.00050   2.06738
   R17        2.05883  -0.00006   0.00167  -0.00144   0.00022   2.05905
   R18        2.06725   0.00005   0.00148  -0.00091   0.00056   2.06781
    A1        1.92523   0.00006  -0.00194   0.00143  -0.00051   1.92472
    A2        1.90394  -0.00007  -0.00113   0.00021  -0.00092   1.90302
    A3        1.93009  -0.00002  -0.00013  -0.00010  -0.00023   1.92986
    A4        1.93009  -0.00002  -0.00013  -0.00009  -0.00023   1.92986
    A5        1.90394  -0.00007  -0.00113   0.00021  -0.00092   1.90302
    A6        1.86991   0.00011   0.00465  -0.00175   0.00290   1.87281
    A7        2.00067   0.00018   0.00055   0.00071   0.00125   2.00192
    A8        2.22723  -0.00023   0.00069  -0.00175  -0.00107   2.22616
    A9        2.05513   0.00004  -0.00108   0.00087  -0.00021   2.05492
   A10        2.00067   0.00018   0.00055   0.00071   0.00125   2.00191
   A11        2.22723  -0.00023   0.00069  -0.00175  -0.00107   2.22616
   A12        2.05514   0.00004  -0.00108   0.00087  -0.00021   2.05492
   A13        2.04445   0.00004   0.00054  -0.00026   0.00028   2.04473
   A14        2.22958  -0.00015   0.00037  -0.00106  -0.00069   2.22889
   A15        2.00915   0.00011  -0.00091   0.00132   0.00041   2.00956
   A16        2.04445   0.00004   0.00054  -0.00026   0.00028   2.04473
   A17        2.22958  -0.00015   0.00037  -0.00106  -0.00069   2.22889
   A18        2.00915   0.00011  -0.00091   0.00132   0.00041   2.00957
   A19        1.92190   0.00001  -0.00280   0.00198  -0.00083   1.92107
   A20        1.97199  -0.00005   0.00320  -0.00250   0.00070   1.97269
   A21        1.92480   0.00001  -0.00229   0.00174  -0.00055   1.92425
   A22        1.88790   0.00004   0.00238  -0.00137   0.00101   1.88891
   A23        1.86439  -0.00007  -0.00315   0.00136  -0.00180   1.86259
   A24        1.88922   0.00006   0.00248  -0.00110   0.00139   1.89061
   A25        1.92191   0.00001  -0.00280   0.00198  -0.00083   1.92107
   A26        1.97199  -0.00005   0.00320  -0.00250   0.00070   1.97269
   A27        1.92480   0.00001  -0.00229   0.00174  -0.00056   1.92425
   A28        1.88790   0.00004   0.00238  -0.00137   0.00101   1.88892
   A29        1.86439  -0.00007  -0.00315   0.00136  -0.00180   1.86259
   A30        1.88922   0.00006   0.00248  -0.00110   0.00139   1.89060
    D1       -1.12489  -0.00007  -0.01984   0.00161  -0.01824  -1.14312
    D2        1.99747  -0.00012  -0.01150  -0.00884  -0.02034   1.97713
    D3        0.99837  -0.00009  -0.02197   0.00253  -0.01944   0.97893
    D4       -2.16245  -0.00015  -0.01363  -0.00792  -0.02154  -2.18400
    D5        3.05061  -0.00001  -0.01707   0.00047  -0.01660   3.03401
    D6       -0.11021  -0.00007  -0.00873  -0.00998  -0.01870  -0.12892
    D7       -1.12477  -0.00007  -0.01986   0.00160  -0.01826  -1.14302
    D8        1.99760  -0.00012  -0.01152  -0.00885  -0.02036   1.97724
    D9        3.05074  -0.00001  -0.01708   0.00046  -0.01662   3.03412
   D10       -0.11008  -0.00007  -0.00874  -0.00999  -0.01873  -0.12881
   D11        0.99850  -0.00009  -0.02199   0.00253  -0.01946   0.97904
   D12       -2.16232  -0.00015  -0.01364  -0.00792  -0.02157  -2.18389
   D13       -3.13432   0.00004  -0.00642   0.00814   0.00173  -3.13259
   D14        0.00927   0.00000  -0.00510   0.00432  -0.00079   0.00849
   D15       -0.01248  -0.00002   0.00218  -0.00259  -0.00042  -0.01290
   D16        3.13111  -0.00005   0.00349  -0.00642  -0.00293   3.12818
   D17       -3.13433   0.00004  -0.00641   0.00814   0.00173  -3.13259
   D18        0.00927   0.00000  -0.00510   0.00431  -0.00078   0.00849
   D19       -0.01248  -0.00002   0.00218  -0.00259  -0.00042  -0.01290
   D20        3.13112  -0.00005   0.00349  -0.00643  -0.00293   3.12819
   D21       -2.14572  -0.00003  -0.00611   0.00317  -0.00293  -2.14864
   D22       -0.03263  -0.00001  -0.00287   0.00113  -0.00174  -0.03438
   D23        2.08423   0.00005   0.00089  -0.00076   0.00013   2.08436
   D24        0.99784  -0.00007  -0.00482  -0.00059  -0.00540   0.99244
   D25        3.11092  -0.00004  -0.00158  -0.00264  -0.00421   3.10671
   D26       -1.05540   0.00001   0.00218  -0.00452  -0.00234  -1.05774
   D27       -2.14577  -0.00003  -0.00610   0.00318  -0.00292  -2.14868
   D28       -0.03268  -0.00001  -0.00286   0.00113  -0.00173  -0.03441
   D29        2.08418   0.00005   0.00090  -0.00075   0.00014   2.08432
   D30        0.99780  -0.00007  -0.00481  -0.00059  -0.00539   0.99241
   D31        3.11089  -0.00004  -0.00157  -0.00264  -0.00420   3.10668
   D32       -1.05544   0.00001   0.00219  -0.00452  -0.00233  -1.05778
         Item               Value     Threshold  Converged?
 Maximum Force            0.000341     0.000450     YES
 RMS     Force            0.000096     0.000300     YES
 Maximum Displacement     0.061005     0.001800     NO 
 RMS     Displacement     0.023072     0.001200     NO 
 Predicted change in Energy=-1.201165D-05
 GradGradGradGradGradGradGradGradGradGradGradGradGradGradGradGradGradGrad

                          Input orientation:                          
 ---------------------------------------------------------------------
 Center     Atomic      Atomic             Coordinates (Angstroms)
 Number     Number       Type             X           Y           Z
 ---------------------------------------------------------------------
      1          6           0       -0.000024   -0.000086    0.573474
      2          6           0        0.975691   -0.762288   -0.289081
      3          6           0       -0.975676    0.762317   -0.288975
      4          1           0       -0.528190   -0.703437    1.220566
      5          1           0        0.531132   -1.556678   -0.885683
      6          6           0        2.292506   -0.553795   -0.411142
      7          1           0       -0.531054    1.556782   -0.885431
      8          6           0       -2.292501    0.553927   -0.411098
      9          1           0        2.836995   -1.203543   -1.093063
     10          6           0        3.126567    0.481541    0.285734
     11          1           0       -2.836935    1.203825   -1.092920
     12          6           0       -3.126643   -0.481469    0.285593
     13          1           0        3.644795    1.103590   -0.450034
     14          1           0        2.542045    1.134710    0.932991
     15          1           0        3.900181   -0.000195    0.891384
     16          1           0       -3.644927   -1.103340   -0.450285
     17          1           0       -2.542171   -1.134801    0.932729
     18          1           0       -3.900213    0.000222    0.891335
     19          1           0        0.528093    0.703111    1.220773
 ---------------------------------------------------------------------
                    Distance matrix (angstroms):
                    1          2          3          4          5
     1  C    0.000000
     2  C    1.508964   0.000000
     3  C    1.508965   2.476339   0.000000
     4  H    1.091966   2.131703   2.151138   0.000000
     5  H    2.198692   1.088404   2.829182   2.507284   0.000000
     6  C    2.555730   1.338794   3.525349   3.262084   2.081683
     7  H    2.198690   2.829135   1.088404   3.089308   3.289662
     8  C    2.555731   3.525392   1.338794   2.712210   3.557075
     9  H    3.503474   2.074981   4.364358   4.114299   2.341947
    10  C    3.176529   2.550253   4.151810   3.954154   3.501834
    11  H    3.503475   4.364387   2.074980   3.784200   4.359725
    12  C    3.176532   4.151898   2.550254   2.770452   3.988394
    13  H    3.943397   3.260601   4.635855   4.844590   4.118460
    14  H    2.806979   2.746912   3.742490   3.589962   3.820329
    15  H    3.913140   3.244522   5.074313   4.495929   4.114741
    16  H    3.943422   4.635992   3.260614   3.558893   4.223098
    17  H    2.806983   3.742585   2.746912   2.079674   3.595802
    18  H    3.913120   5.074372   3.244510   3.460357   5.021808
    19  H    1.091966   2.151139   2.131705   1.759008   3.089306
                    6          7          8          9         10
     6  C    0.000000
     7  H    3.556962   0.000000
     8  C    4.716920   2.081683   0.000000
     9  H    1.087961   4.359617   5.464934   0.000000
    10  C    1.501071   3.988229   5.464166   2.196461   0.000000
    11  H    5.464907   2.341947   1.087961   6.163514   6.163257
    12  C    5.464234   3.501835   1.501071   6.163365   6.326929
    13  H    2.139421   4.222875   5.962812   2.527625   1.094011
    14  H    2.172558   3.595656   5.051407   3.107944   1.089604
    15  H    2.141883   5.021663   6.352386   2.552731   1.094239
    16  H    5.962939   4.118472   2.139422   6.514486   6.993334
    17  H    5.051501   3.820330   2.172558   5.748390   5.930073
    18  H    6.352413   4.114731   2.141882   7.125789   7.069234
    19  H    2.712215   2.507318   3.262055   3.784204   2.770463
                   11         12         13         14         15
    11  H    0.000000
    12  C    2.196462   0.000000
    13  H    6.514305   6.993278   0.000000
    14  H    5.748262   5.930024   1.769119   0.000000
    15  H    7.125718   7.069291   1.755837   1.770388   0.000000
    16  H    2.527617   1.094010   7.616469   6.723165   7.742459
    17  H    3.107944   1.089604   6.723167   5.567758   6.541631
    18  H    2.552742   1.094239   7.742341   6.541520   7.800394
    19  H    4.114280   3.954098   3.558906   2.079687   3.460364
                   16         17         18         19
    16  H    0.000000
    17  H    1.769121   0.000000
    18  H    1.755837   1.770386   0.000000
    19  H    4.844564   3.589904   4.495829   0.000000
 Stoichiometry    C7H12
 Framework group  C1[X(C7H12)]
 Deg. of freedom    51
 Full point group                 C1      NOp   1
 Largest Abelian subgroup         C1      NOp   1
 Largest concise Abelian subgroup C1      NOp   1
                         Standard orientation:                         
 ---------------------------------------------------------------------
 Center     Atomic      Atomic             Coordinates (Angstroms)
 Number     Number       Type             X           Y           Z
 ---------------------------------------------------------------------
      1          6           0        0.000011    0.000107    0.579041
      2          6           0       -0.975780    0.762213   -0.283514
      3          6           0        0.975737   -0.762200   -0.283408
      4          1           0        0.528107    0.703510    1.226133
      5          1           0       -0.531299    1.556647   -0.880116
      6          6           0       -2.292574    0.553589   -0.405575
      7          1           0        0.531195   -1.556709   -0.879864
      8          6           0        2.292542   -0.553680   -0.405531
      9          1           0       -2.837127    1.203284   -1.087496
     10          6           0       -3.126533   -0.481829    0.291301
     11          1           0        2.837040   -1.203525   -1.087353
     12          6           0        3.126583    0.481798    0.291159
     13          1           0       -3.644700   -1.103929   -0.444467
     14          1           0       -2.541946   -1.134940    0.938557
     15          1           0       -3.900194   -0.000169    0.896950
     16          1           0        3.644805    1.103721   -0.444718
     17          1           0        2.542046    1.135073    0.938296
     18          1           0        3.900200    0.000184    0.896902
     19          1           0       -0.528037   -0.703142    1.226340
 ---------------------------------------------------------------------
 Rotational constants (GHZ):           7.9804500           1.0226447           0.9867988
 Standard basis: 6-31+G(d,p) (6D, 7F)
 There are   193 symmetry adapted cartesian basis functions of A   symmetry.
 There are   193 symmetry adapted basis functions of A   symmetry.
   193 basis functions,   308 primitive gaussians,   193 cartesian basis functions
    27 alpha electrons       27 beta electrons
       nuclear repulsion energy       277.6492542618 Hartrees.
 NAtoms=   19 NActive=   19 NUniq=   19 SFac= 1.00D+00 NAtFMM=   60 NAOKFM=F Big=F
 Integral buffers will be    131072 words long.
 Raffenetti 2 integral format.
 Two-electron integral symmetry is turned on.
 ------------------------------------------------------------------------------
 Polarizable Continuum Model (PCM)
 =================================
 Model                : PCM.
 Atomic radii         : SMD-Coulomb.
 Polarization charges : Total charges.
 Charge compensation  : None.
 Solution method      : On-the-fly selection.
 Cavity type          : VdW (van der Waals Surface) (Alpha=1.000).
 Cavity algorithm     : GePol (No added spheres)
                        Default sphere list used, NSphG=   19.
                        Lebedev-Laikov grids with approx.  5.0 points / Ang**2.
                        Smoothing algorithm: York/Karplus (Gamma=1.0000).
                        Polarization charges: spherical gaussians, with
                                              point-specific exponents (IZeta= 3).
                        Self-potential: point-specific (ISelfS= 7).
                        Self-field    : sphere-specific E.n sum rule (ISelfD= 2).
 1st derivatives      : Analytical E(r).r(x)/FMM algorithm (CHGder, D1EAlg=3).
                        Cavity 1st derivative terms included.
 Solvent              : Ethanol, Eps=  24.852000 Eps(inf)=   1.852593
 ------------------------------------------------------------------------------
 Spheres list:
 ISph  on   Nord     Re0    Alpha      Xe            Ye            Ze
    1   C      1    1.8500  1.000      0.000011      0.000107      0.579041
    2   C      2    1.8500  1.000     -0.975780      0.762213     -0.283514
    3   C      3    1.8500  1.000      0.975737     -0.762200     -0.283408
    4   H      4    1.2000  1.000      0.528107      0.703510      1.226133
    5   H      5    1.2000  1.000     -0.531299      1.556647     -0.880116
    6   C      6    1.8500  1.000     -2.292574      0.553589     -0.405575
    7   H      7    1.2000  1.000      0.531195     -1.556709     -0.879864
    8   C      8    1.8500  1.000      2.292542     -0.553680     -0.405531
    9   H      9    1.2000  1.000     -2.837127      1.203284     -1.087496
   10   C     10    1.8500  1.000     -3.126533     -0.481829      0.291301
   11   H     11    1.2000  1.000      2.837040     -1.203525     -1.087353
   12   C     12    1.8500  1.000      3.126583      0.481798      0.291159
   13   H     13    1.2000  1.000     -3.644700     -1.103929     -0.444467
   14   H     14    1.2000  1.000     -2.541946     -1.134940      0.938557
   15   H     15    1.2000  1.000     -3.900194     -0.000169      0.896950
   16   H     16    1.2000  1.000      3.644805      1.103721     -0.444718
   17   H     17    1.2000  1.000      2.542046      1.135073      0.938296
   18   H     18    1.2000  1.000      3.900200      0.000184      0.896902
   19   H     19    1.2000  1.000     -0.528037     -0.703142      1.226340
 ------------------------------------------------------------------------------
 ------------------------------------------------------------------------------
 Atomic radii for non-electrostatic terms: SMD-CDS.
 ------------------------------------------------------------------------------
 Nuclear repulsion after PCM non-electrostatic terms =      277.6477855839 Hartrees.
 One-electron integrals computed using PRISM.
 NBasis=   193 RedAO= T EigKep=  2.77D-05  NBF=   193
 NBsUse=   193 1.00D-06 EigRej= -1.00D+00 NBFU=   193
 Initial guess from the checkpoint file:  "bisaliloETBG.chk"
 B after Tr=    -0.000000   -0.000000   -0.000000
         Rot=    1.000000    0.000000    0.000000    0.000466 Ang=   0.05 deg.
 ExpMin= 4.38D-02 ExpMax= 3.05D+03 ExpMxC= 4.57D+02 IAcc=2 IRadAn=         4 AccDes= 0.00D+00
 Harris functional with IExCor= 1009 and IRadAn=       4 diagonalized for initial guess.
 HarFok:  IExCor= 1009 AccDes= 0.00D+00 IRadAn=         4 IDoV= 1 UseB2=F ITyADJ=14
 ICtDFT=  3500011 ScaDFX=  1.000000  1.000000  1.000000  1.000000
[...]
 2,-0.00830723,-0.01306893,0.01041140,0.09391162,0.17178073,0.07825988,
 0.10093187,-0.14330983,0.01145400,0.01127654,-0.01043744,0.00926372,0.
 01336058,-0.01159484,-0.08808978,-0.11161752,0.15173305,0.00785600,0.0
 1597010,0.01115843,-0.10309979,-0.08782316,-0.05811603,0.00195628,-0.0
 0063772,0.00066318,0.00086660,-0.00078291,-0.00058258,0.11090772,-0.00
 664633,-0.00920800,-0.00806489,-0.09124257,-0.20846344,-0.11822516,-0.
 00124985,0.00091927,-0.00051892,0.00050544,0.00060063,-0.00012618,0.09
 738464,0.21405842,-0.00698364,-0.01392076,-0.00752492,-0.06111314,-0.1
 1976176,-0.12312503,-0.00027080,0.00071847,-0.00025019,-0.00071074,0.0
 0071824,0.00081658,0.06029767,0.13290300,0.12192008,-0.01858169,0.0006
 6882,0.00589724,-0.54335647,-0.08035066,0.05632304,0.00027774,-0.00129
 254,0.00225195,0.00014160,0.00110239,-0.00010138,-0.01276766,-0.000754
 91,0.00432754,0.84228964,0.01686681,0.00835044,-0.00167027,-0.07341687
 ,-0.10346175,-0.01964313,0.00151277,0.00022995,-0.00313020,0.00230947,
 -0.00168196,-0.00217713,-0.02583786,-0.00065520,0.00207936,0.07104485,
 0.42925623,0.02042427,0.00130686,0.00392494,0.06201031,-0.01794073,-0.
 08767087,0.00023255,0.00024714,-0.00342238,0.00208310,-0.00134227,-0.0
 0181928,-0.01694940,-0.00452812,0.00558543,-0.11485367,0.20794700,0.35
 307102,0.00785625,0.01597141,-0.01115480,0.00195627,-0.00063743,-0.000
 66328,-0.10310896,-0.08783997,0.05810442,-0.00223954,0.00249866,-0.002
 39376,-0.00002856,0.00004086,0.00004353,-0.00014948,-0.00044321,0.0002
 8823,0.11091766,-0.00664810,-0.00921239,0.00806481,-0.00125001,0.00091
 933,0.00051911,-0.09125991,-0.20850004,0.11820553,0.00211466,-0.000333
 95,0.00163814,0.00004088,-0.00016095,-0.00003559,0.00031616,-0.0000611
 3,-0.00036704,0.09740182,0.21409964,0.00698347,0.01392097,-0.00752118,
 0.00027073,-0.00071840,-0.00025012,0.06110080,0.11974212,-0.12307957,-
 0.00260149,0.00241293,-0.00097174,-0.00004352,0.00003555,0.00003515,-0
 .00031272,0.00021832,0.00037849,-0.06028478,-0.13288204,0.12186957,-0.
 01858044,0.00067075,-0.00589759,0.00027783,-0.00129188,-0.00225202,-0.
 54336167,-0.08032558,-0.05634618,0.00032606,-0.00093869,0.00107926,-0.
 00014955,0.00031609,0.00031274,0.00038300,0.00064275,0.00038406,-0.012
 76885,-0.00075378,-0.00432813,0.84229214,0.01687121,0.00834988,0.00167
 175,0.00151256,0.00022943,0.00313101,-0.07339050,-0.10346426,0.0196404
 6,-0.00074253,0.00004275,-0.00017082,-0.00044311,-0.00006118,-0.000218
 45,0.00064287,-0.00080071,-0.00084183,-0.02584040,-0.00065472,-0.00208
 094,0.07101402,0.42932668,-0.02042191,-0.00130553,0.00392444,-0.000232
 13,-0.00024627,-0.00342198,-0.06203208,0.01793826,-0.08766693,0.000842
 60,-0.00059308,0.00042772,-0.00028834,0.00036696,0.00037851,-0.0003839
 8,0.00084145,0.00114764,0.01694462,0.00452637,0.00558618,0.11486838,-0
 .20793666,0.35300265,-0.00269334,-0.00381329,0.00074538,-0.01556178,0.
 02038825,0.02177051,0.00019436,-0.00039141,0.00055219,-0.00105606,0.00
 066681,0.00079175,0.00052232,0.00117008,-0.00132404,-0.12264375,0.0813
 0192,0.08736058,-0.00004275,0.00008741,-0.00010043,-0.00012764,0.00022
 179,-0.00028309,0.13144885,-0.00208621,0.00565657,-0.00526549,-0.00523
 630,0.00631827,0.00208829,-0.00110337,0.00060140,0.00122420,0.00090312
 ,-0.00093242,-0.00065837,0.00093329,-0.00240672,0.00464511,0.08513350,
 -0.15657311,-0.11662205,0.00002954,-0.00001006,0.00000305,-0.00007205,
 0.00023665,-0.00025557,-0.08599735,0.15893535,0.00113391,-0.00487704,0
 .00813446,0.00133838,-0.00455404,0.00131166,0.00153263,-0.00072244,-0.
 00160450,-0.00084573,0.00093629,0.00076449,-0.00139957,0.00474186,-0.0
 0413442,0.09024703,-0.11598519,-0.15830355,-0.00004584,0.00000117,0.00
 000638,0.00007435,-0.00039510,0.00033497,-0.09716038,0.13035251,0.1575
 1112,0.00155139,0.00018997,-0.00140902,-0.01610016,-0.02492730,-0.0146
 9210,-0.00004240,0.00011298,0.00033866,-0.00005871,-0.00001650,-0.0000
 6219,-0.00267668,-0.00167421,0.00252237,-0.13100982,-0.05664707,-0.031
 83432,-0.00003278,0.00004275,-0.00008405,-0.00002149,0.00020122,-0.000
 12679,0.01041924,0.01072229,0.00719161,0.55402417,0.00138024,-0.002351
 94,0.00322931,-0.00850702,0.00184943,-0.00275522,0.00063068,-0.0002408
 1,-0.00048258,-0.00035815,-0.00014902,-0.00003674,-0.00016210,0.006160
 37,-0.00507176,-0.05724592,-0.16121415,-0.05731052,-0.00003445,0.00001
 827,0.00000671,-0.00003017,-0.00004523,0.00011265,-0.01215553,-0.01102
 425,-0.00805238,-0.03694053,0.54521178,-0.00069176,0.00362983,-0.00326
 954,-0.00074063,0.00122867,0.00873606,-0.00022060,0.00011720,0.0002004
 0,0.00081494,-0.00025129,-0.00024727,0.00357992,-0.00499163,0.00756989
 ,-0.03232187,-0.05662982,-0.11179703,0.00001694,0.00000663,0.00003580,
 -0.00009050,-0.00001999,-0.00016647,-0.01160754,-0.01386718,-0.0054334
 6,-0.03043598,0.00374327,0.56085104,-0.00269347,-0.00381292,-0.0007460
 9,0.00019435,-0.00039128,-0.00055230,-0.01556082,0.02039272,-0.0217673
 2,0.00029209,0.00006397,0.00003164,-0.00004276,0.00008739,0.00010044,-
 0.00012766,0.00022174,0.00028314,0.00052232,0.00116984,0.00132421,-0.1
 2263412,0.08131383,-0.08734128,-0.00008340,-0.00002717,0.00006286,-0.0
 0004634,0.00002295,-0.00001819,0.13143878,-0.00208589,0.00565501,0.005
 26504,-0.00110302,0.00060151,-0.00122381,-0.00523516,0.00631722,-0.002
 08664,0.00001824,-0.00003430,-0.00003012,0.00002954,-0.00001007,-0.000
 00305,-0.00007205,0.00023652,0.00025553,0.00093300,-0.00240512,-0.0046
 4484,0.08514579,-0.15662175,0.11662741,-0.00002715,-0.00011675,0.00015
 126,-0.00006108,0.00006696,-0.00001548,-0.08601079,0.15898917,-0.00113
 441,0.00487660,0.00813627,-0.00153273,0.00072284,-0.00160464,-0.001339
 44,0.00455540,0.00131164,0.00040201,-0.00008407,0.00017170,0.00004585,
 -0.00000117,0.00000640,-0.00007438,0.00039508,0.00033508,0.00139965,-0
 .00474156,-0.00413606,-0.09022710,0.11599061,-0.15826572,-0.00006287,-
 0.00015132,0.00020030,-0.00008463,0.00008430,-0.00002585,0.09713993,-0
 .13035766,0.15746850,0.00155117,0.00018960,0.00140897,-0.00004244,0.00
 011299,-0.00033863,-0.01610173,-0.02492906,0.01468743,-0.00138559,-0.0
 0042864,-0.00009591,-0.00003277,0.00004273,0.00008404,-0.00002150,0.00
 020120,0.00012682,-0.00267664,-0.00167351,-0.00252265,-0.13101516,-0.0
 5665504,0.03182637,-0.00004634,-0.00006109,0.00008461,-0.00004659,0.00
 002452,-0.00002052,0.01041905,0.01072242,-0.00718915,0.55401959,0.0013
 7992,-0.00235082,-0.00322920,0.00063062,-0.00024092,0.00048255,-0.0085
 0648,0.00185028,0.00275331,-0.00011078,0.00015068,-0.00001996,-0.00003
 444,0.00001827,-0.00000672,-0.00003018,-0.00004521,-0.00011264,-0.0001
 6127,0.00615865,0.00507167,-0.05725379,-0.16122985,0.05730007,0.000022
 95,0.00006697,-0.00008429,0.00002452,-0.00003409,0.00003824,-0.0121586
 3,-0.01102798,0.00805145,-0.03694672,0.54521590,0.00069203,-0.00362964
 ,-0.00327082,0.00022070,-0.00011723,0.00020045,0.00073876,-0.00123036,
 0.00873659,-0.00034918,-0.00027882,-0.00013256,-0.00001695,-0.00000663
 ,0.00003580,0.00009050,0.00002002,-0.00016649,-0.00357996,0.00499142,0
 .00757155,0.03231369,0.05661926,-0.11177596,0.00001819,0.00001549,-0.0
 0002586,0.00002054,-0.00003825,0.00000431,0.01160617,0.01386580,-0.005
 42942,0.03042819,-0.00374951,0.56085042,-0.00005916,-0.00076105,0.0005
 0577,0.00068542,-0.00197346,-0.00154688,0.00007869,-0.00005747,0.00018
 610,-0.00028215,-0.00002957,-0.00007886,-0.00093421,0.00065055,-0.0010
 7584,-0.01247236,-0.01139002,0.01273797,-0.00000602,0.00004754,-0.0000
 3952,0.00000802,0.00007998,-0.00005264,0.00055638,0.00048977,-0.000556
 16,-0.09918003,-0.06639351,0.08886512,-0.00002088,0.00000119,-0.000007
 68,-0.00001341,-0.00001533,-0.00000361,0.10766930,0.00014061,-0.000300
 36,0.00002181,0.00046419,-0.00244633,-0.00217751,-0.00008850,-0.000054
 00,0.00036458,-0.00001971,0.00021518,0.00025201,-0.00095563,0.00087317
 ,-0.00119116,-0.01197404,-0.01234825,0.01612465,0.00002349,0.00001864,
 -0.00003917,0.00000436,0.00012596,-0.00006215,0.00057313,0.00082822,-0
 .00045610,-0.06691480,-0.12995055,0.10468213,-0.00003428,-0.00003661,-
 0.00005042,-0.00002426,-0.00000361,0.00000815,0.07652882,0.13824525,0.
 00007517,-0.00017297,-0.00013004,-0.00108114,-0.00125325,-0.00107367,0
 .00003317,0.00002850,0.00014599,0.00003017,0.00011044,0.00015524,-0.00
 049671,0.00068327,-0.00099193,-0.00817229,-0.01009787,0.01376423,-0.00
 001890,0.00000516,-0.00001798,-0.00001154,0.00005633,-0.00001693,0.000
 65474,0.00081077,0.00039153,0.08804818,0.10406566,-0.18196604,-0.00000
 893,-0.00002930,-0.00003158,-0.00000564,0.00001235,0.00001749,-0.09349
 520,-0.11383369,0.19503482,-0.00151119,-0.00044004,0.00003294,0.000163
 13,0.00090516,0.00057445,0.00022438,0.00000696,0.00011505,0.00020327,-
 0.00002781,0.00000354,0.00024842,0.00027475,0.00008143,0.01448186,-0.0
 1134627,-0.01224077,0.00004603,0.00003631,-0.00001740,-0.00000938,0.00
 000190,0.00002369,-0.00171825,-0.00312470,-0.00159565,-0.13085926,0.09
 307026,0.08955537,0.00001438,0.00000765,0.00001435,0.00001513,-0.00001
 343,-0.00001992,-0.00787492,0.00841300,0.00645443,0.14156163,-0.000095
 19,0.00001456,-0.00007847,0.00096670,0.00053650,0.00033573,-0.00002638
 ,0.00022813,0.00004131,0.00015910,0.00030446,0.00026975,-0.00003841,0.
 00014305,0.00004718,0.01429077,-0.01381229,-0.01299219,-0.00002114,-0.
 00004927,0.00001521,0.00004942,-0.00006252,0.00005486,-0.00315997,-0.0
 0183891,-0.00204549,0.09109444,-0.15213775,-0.09980093,0.00002775,-0.0
 0003132,-0.00003347,-0.00000025,0.00001322,0.00002457,-0.01021691,0.01
 302363,0.01008686,-0.09900354,0.16107902,0.00044961,0.00032646,-0.0001
 5309,0.00075746,0.00045826,-0.00004333,-0.00012890,0.00019646,0.000195
 43,0.00003616,0.00010116,0.00006816,-0.00008479,0.00002704,0.00001710,
 0.00769884,-0.00769280,-0.00911422,-0.00001441,-0.00000290,-0.00002506
 ,0.00002809,-0.00000140,0.00000748,-0.00176850,-0.00220639,0.00037194,
 0.08812233,-0.10004674,-0.14495140,0.00001696,-0.00002845,-0.00003336,
 0.00000119,0.00000319,0.00001642,0.01147721,-0.01419412,-0.01236082,-0
 .09769817,0.11107296,0.15264662,-0.00034074,0.00053171,-0.00069482,0.0
 0111838,-0.00187356,-0.00199023,-0.00010270,-0.00018749,0.00024048,0.0
 0003022,0.00002918,0.00006215,-0.00042747,-0.00111543,0.00103492,-0.01
 672404,0.00552811,-0.00934845,0.00000181,0.00001279,-0.00001478,-0.000
 04431,0.00011227,-0.00010939,0.00058934,-0.00051288,0.00031928,-0.1845
 1247,0.08682803,-0.10705518,-0.00004276,-0.00001762,-0.00002742,-0.000
 02408,0.00001052,0.00000219,0.01160208,-0.00603417,0.00803727,-0.01176
 076,0.00652274,-0.00958500,0.20053004,-0.00015944,0.00015299,-0.000692
 55,-0.00053129,-0.00233859,-0.00147298,-0.00002087,0.00010777,0.000382
 59,-0.00006563,0.00015161,0.00011057,-0.00015271,-0.00145065,0.0014486
 3,-0.02059301,0.01239513,-0.01449044,0.00000901,0.00000674,-0.00003803
 ,-0.00000133,0.00007961,-0.00006633,0.00107186,0.00039519,0.00077161,0
 .08528415,-0.09631675,0.06188983,-0.00001696,-0.00003408,-0.00004941,-
 0.00003758,-0.00000251,0.00000558,0.01307825,-0.00824637,0.00943149,0.
 01186418,-0.00811491,0.01135820,-0.08972863,0.10302219,-0.00018651,0.0
 0010469,-0.00045946,0.00060505,-0.00138857,-0.00109752,0.00005292,0.00
 011991,0.00036973,-0.00010955,0.00012265,0.00005819,-0.00020207,-0.000
 64694,0.00072065,-0.00952808,0.00548697,-0.00626799,-0.00000745,0.0000
 0805,-0.00004374,-0.00000815,0.00007749,-0.00006342,0.00043767,-0.0002
 3263,0.00041227,-0.10764717,0.06254307,-0.12944960,-0.00001548,-0.0000
 3175,-0.00004417,-0.00003218,-0.00000469,0.00000789,-0.01672953,0.0102
 6684,-0.01320113,0.01413377,-0.00782871,0.01275353,0.11927564,-0.06871
 871,0.13619110,-0.00005921,-0.00076095,-0.00050595,0.00007869,-0.00005
 744,-0.00018611,0.00068537,-0.00197390,0.00154664,0.00026363,-0.000036
 37,0.00018891,-0.00000602,0.00004753,0.00003953,0.00000802,0.00007997,
 0.00005266,-0.00093426,0.00065042,0.00107599,-0.01247338,-0.01138771,-
 0.01274102,-0.00002088,0.00000119,0.00000768,-0.00001341,-0.00001533,0
 .00000360,0.00055642,0.00048968,0.00055630,-0.09918539,-0.06637786,-0.
 08888188,-0.00001139,-0.00000598,0.00000089,-0.00000240,0.00001215,0.0
 0000616,-0.00000658,-0.00000863,-0.00000969,0.10767549,0.00014059,-0.0
 0030044,-0.00002182,-0.00008847,-0.00005391,-0.00036462,0.00046381,-0.
 00244683,0.00217721,-0.00008106,0.00008048,-0.00026903,0.00002349,0.00
 001864,0.00003917,0.00000435,0.00012595,0.00006217,-0.00095567,0.00087
 308,0.00119143,-0.01197528,-0.01234608,-0.01612902,-0.00003428,-0.0000
 3663,0.00005042,-0.00002426,-0.00000360,-0.00000816,0.00057323,0.00082
 821,0.00045614,-0.06689920,-0.12990699,-0.10466878,-0.00000597,-0.0000
 1579,-0.00000508,-0.00000159,0.00000294,0.00000223,-0.00001362,-0.0000
 1151,-0.00001231,0.07651219,0.13819741,-0.00007512,0.00017297,-0.00013
 003,-0.00003319,-0.00002856,0.00014592,0.00108130,0.00125290,-0.001073
 00,0.00003480,-0.00011005,0.00027656,0.00001891,-0.00000515,-0.0000179
 7,0.00001154,-0.00005630,-0.00001692,0.00049652,-0.00068294,-0.0009918
 1,0.00817034,0.01009267,0.01376308,0.00000892,0.00002930,-0.00003157,0
 .00000564,-0.00001236,0.00001749,-0.00065465,-0.00081067,0.00039150,-0
 .08806510,-0.10405251,-0.18200651,-0.00000089,0.00000508,0.00000023,0.
 00000211,0.00000182,0.00000015,0.00000673,0.00000688,0.00000382,0.0935
 1418,0.11381950,0.19507881,-0.00151092,-0.00043986,-0.00003298,0.00022
 439,0.00000695,-0.00011502,0.00016321,0.00090524,-0.00057432,-0.003229
 31,-0.00062137,-0.00057429,0.00004604,0.00003629,0.00001740,-0.0000093
 8,0.00000190,-0.00002368,0.00024841,0.00027477,-0.00008134,0.01448192,
 -0.01134983,0.01223952,0.00001438,0.00000765,-0.00001435,0.00001512,-0
 .00001343,0.00001991,-0.00171854,-0.00312497,0.00159518,-0.13084816,0.
 09308542,-0.08953253,-0.00000240,-0.00000159,-0.00000211,-0.00000191,-
 0.00000425,-0.00000568,0.00000782,0.00000284,-0.00000031,-0.00787486,0
 .00841491,-0.00645323,0.14155078,-0.00009495,0.00001461,0.00007843,-0.
 00002638,0.00022819,-0.00004131,0.00096682,0.00053658,-0.00033555,-0.0
 0055650,0.00071047,-0.00082798,-0.00002115,-0.00004926,-0.00001522,0.0
 0004943,-0.00006252,-0.00005487,-0.00003844,0.00014307,-0.00004713,0.0
 1429074,-0.01381613,0.01299093,0.00002776,-0.00003133,0.00003347,-0.00
 000025,0.00001322,-0.00002457,-0.00316028,-0.00183938,0.00204492,0.091
 10961,-0.15218119,0.09980531,0.00001215,0.00000294,-0.00000181,-0.0000
 0425,-0.00001119,-0.00000356,-0.00000071,0.00000216,0.00000287,-0.0102
 1385,0.01302291,-0.01008197,-0.09901992,0.16112740,-0.00044971,-0.0003
 2643,-0.00015308,0.00012887,-0.00019647,0.00019538,-0.00075730,-0.0004
 5813,-0.00004353,-0.00068920,-0.00062942,0.00060212,0.00001440,0.00000
 290,-0.00002506,-0.00002809,0.00000139,0.00000747,0.00008478,-0.000027
 02,0.00001709,-0.00769558,0.00769218,-0.00911047,-0.00001695,0.0000284
 5,-0.00003335,-0.00000119,-0.00000319,0.00001642,0.00176798,0.00220591
 ,0.00037278,-0.08809977,0.10005114,-0.14491547,-0.00000616,-0.00000223
 ,0.00000015,0.00000568,0.00000356,0.00000219,-0.00000163,-0.00000065,-
 0.00000015,-0.01147842,0.01419933,-0.01236023,0.09767286,-0.11107791,0
 .15260684,-0.00034080,0.00053158,0.00069499,-0.00010270,-0.00018744,-0
 .00024054,0.00111825,-0.00187403,0.00198994,0.00012121,-0.00008103,0.0
 0016182,0.00000182,0.00001279,0.00001478,-0.00004432,0.00011225,0.0001
 0941,-0.00042749,-0.00111531,-0.00103522,-0.01672482,0.00552772,0.0093
 5004,-0.00004276,-0.00001763,0.00002742,-0.00002408,0.00001052,-0.0000
 0219,0.00058935,-0.00051284,-0.00031937,-0.18450636,0.08681300,0.10706
 806,-0.00000658,-0.00001362,-0.00000673,0.00000782,-0.00000071,0.00000
 163,-0.00001494,-0.00001022,-0.00001011,0.01160233,-0.00603350,-0.0080
 3864,-0.01175989,0.00652109,0.00958554,0.20052372,-0.00015944,0.000152
 86,0.00069258,-0.00002082,0.00010787,-0.00038262,-0.00053133,-0.002338
 93,0.00147271,0.00001598,0.00021707,-0.00010817,0.00000901,0.00000673,
 0.00003804,-0.00000133,0.00007961,0.00006635,-0.00015274,-0.00145047,-
 0.00144901,-0.02059354,0.01239413,0.01449329,-0.00001696,-0.00003409,0
 .00004941,-0.00003759,-0.00000251,-0.00000558,0.00107194,0.00039523,-0
 .00077159,0.08526883,-0.09630177,-0.06188771,-0.00000863,-0.00001151,-
 0.00000689,0.00000284,0.00000216,0.00000065,-0.00001022,-0.00001504,-0
 .00001553,0.01307445,-0.00824310,-0.00943017,0.01186705,-0.00811506,-0
 .01136231,-0.08971183,0.10300517,0.00018648,-0.00010459,-0.00045927,-0
 .00005295,-0.00011997,0.00036962,-0.00060513,0.00138829,-0.00109703,0.
 00001879,-0.00014728,0.00009260,0.00000746,-0.00000804,-0.00004373,0.0
 0000815,-0.00007746,-0.00006342,0.00020204,0.00064654,0.00072051,0.009
 52400,-0.00548378,-0.00626612,0.00001548,0.00003175,-0.00004416,0.0000
 3218,0.00000469,0.00000789,-0.00043745,0.00023267,0.00041216,0.1076597
 8,-0.06254112,-0.12947059,0.00000969,0.00001231,0.00000382,0.00000031,
 -0.00000287,-0.00000015,0.00001010,0.00001553,0.00001733,0.01673171,-0
 .01026677,-0.01320470,-0.01413148,0.00782563,0.01275284,-0.11928869,0.
 06871712,0.13621426,-0.11376373,-0.09096892,-0.08057847,0.01307694,0.0
 1501684,0.01319963,-0.01449286,-0.01296059,-0.01245529,-0.00798732,-0.
 00906662,-0.00931791,-0.00223973,0.00211417,0.00260181,0.00032626,-0.0
 0074243,-0.00084283,0.00086656,0.00050526,0.00071082,0.00014183,0.0023
 0976,-0.00208255,0.00029208,0.00001839,-0.00040208,-0.00138571,-0.0001
 1105,0.00034917,-0.00105601,0.00090305,0.00084591,-0.00005877,-0.00035
 803,-0.00081502,0.00026362,-0.00008104,-0.00003481,-0.00322797,-0.0005
 5632,0.00068980,0.00012117,0.00001601,-0.00001875,-0.00028216,-0.00001
 970,-0.00003017,0.00020328,0.00015908,-0.00003611,0.00003023,-0.000065
 66,0.00010955,0.12917229,-0.08871981,-0.15935615,-0.10058431,-0.008304
 61,-0.01306415,-0.01041218,0.01080703,0.01353658,0.01213382,-0.0090680
 4,-0.01219248,-0.01179746,0.00249825,-0.00033310,-0.00241275,-0.000938
 49,0.00004244,0.00059299,-0.00078308,0.00060067,-0.00071839,0.00110218
 ,-0.00168267,0.00134236,0.00006399,-0.00003435,0.00008405,-0.00042873,
 0.00015063,0.00027883,0.00066695,-0.00093246,-0.00093668,-0.00001655,-
 0.00014903,0.00025132,-0.00003633,0.00008041,0.00011002,-0.00062135,0.
 00071048,0.00062973,-0.00008104,0.00021702,0.00014732,-0.00002957,0.00
 021526,-0.00011044,-0.00002780,0.00030452,-0.00010110,0.00002921,0.000
 15165,-0.00012264,0.09388780,0.17173470,-0.07827691,-0.10093949,-0.143
 36104,-0.00926414,-0.01335988,-0.01159929,-0.01145230,-0.01127211,-0.0
 1043845,0.00931494,0.01179157,0.01334655,0.00239415,-0.00163776,-0.000
 97235,-0.00107938,0.00017057,0.00042785,0.00058244,0.00012616,0.000816
 53,0.00010189,0.00217720,-0.00181864,-0.00003160,0.00003005,0.00017174
 ,0.00009594,0.00002008,-0.00013264,-0.00079166,0.00065815,0.00076448,0
 .00006217,0.00003667,-0.00024725,-0.00018890,0.00026898,0.00027661,0.0
 0057479,0.00082833,0.00060242,-0.00016186,0.00010819,0.00009266,0.0000
 7883,-0.00025200,0.00015517,-0.00000355,-0.00026967,0.00006806,-0.0000
 6215,-0.00011055,0.00005814,0.08810730,0.11162552,0.15178945\\0.,0.,-0
 .00000170,0.00000813,-0.00001398,0.00000029,-0.00000810,0.00001399,0.0
 0000027,-0.00000435,0.00000320,-0.00000045,0.00000537,0.00000449,0.000
 00190,-0.00001402,0.00000537,0.00000158,-0.00000538,-0.00000450,0.0000
 0190,0.00001400,-0.00000536,0.00000159,-0.00000100,0.00000632,-0.00000
 252,-0.00000088,-0.00000085,-0.00000400,0.00000100,-0.00000633,-0.0000
 0252,0.00000087,0.00000084,-0.00000399,0.00000162,-0.00000287,0.000003
 34,-0.00000077,0.00000044,-0.00000441,-0.00000278,0.00000274,0.0000050
 9,-0.00000162,0.00000286,0.00000337,0.00000078,-0.00000043,-0.00000440
 ,0.00000278,-0.00000273,0.00000510,0.00000436,-0.00000319,-0.00000046\
 \\@


 CHEMISTRY BEGAN BY SAYING IT WOULD CHANGE THE BASER
 METALS INTO GOLD.  BY NOT DOING THAT IT HAS DONE MUCH
 GREATER THINGS.  --  RALPH WALDO EMERSON
 Job cpu time:       0 days  0 hours 36 minutes 58.1 seconds.
 Elapsed time:       0 days  0 hours  3 minutes 42.0 seconds.
 File lengths (MBytes):  RWF=    110 Int=      0 D2E=      0 Chk=      8 Scr=      1
 Normal termination of Gaussian 16 at Fri Apr 29 13:31:27 2022.
