 Entering Gaussian System, Link 0=g16
 Initial command:
 /usr/local/g16/l1.exe "/home/raul/scrgauss16/Gau-9128.inp" -scrdir="/home/raul/scrgauss16/"
 Entering Link 1 = /usr/local/g16/l1.exe PID=      9130.
  
 Copyright (c) 1988,1990,1992,1993,1995,1998,2003,2009,2016,
            Gaussian, Inc.  All Rights Reserved.
  
 This is part of the Gaussian(R) 16 program.  It is based on
 the Gaussian(R) 09 system (copyright 2009, Gaussian, Inc.),
 the Gaussian(R) 03 system (copyright 2003, Gaussian, Inc.),
 the Gaussian(R) 98 system (copyright 1998, Gaussian, Inc.),
 the Gaussian(R) 94 system (copyright 1995, Gaussian, Inc.),
 the Gaussian 92(TM) system (copyright 1992, Gaussian, Inc.),
 the Gaussian 90(TM) system (copyright 1990, Gaussian, Inc.),
 the Gaussian 88(TM) system (copyright 1988, Gaussian, Inc.),
 the Gaussian 86(TM) system (copyright 1986, Carnegie Mellon
 University), and the Gaussian 82(TM) system (copyright 1983,
 Carnegie Mellon University). Gaussian is a federally registered
 trademark of Gaussian, Inc.
  
 This software contains proprietary and confidential information,
 including trade secrets, belonging to Gaussian, Inc.
  
 This software is provided under written license and may be
 used, copied, transmitted, or stored only in accord with that
 written license.
  
 The following legend is applicable only to US Government
 contracts under FAR:
  
                    RESTRICTED RIGHTS LEGEND
  
 Use, reproduction and disclosure by the US Government is
 subject to restrictions as set forth in subparagraphs (a)
 and (c) of the Commercial Computer Software - Restricted
 Rights clause in FAR 52.227-19.
  
 Gaussian, Inc.
 340 Quinnipiac St., Bldg. 40, Wallingford CT 06492
  
  
 ---------------------------------------------------------------
 Warning -- This program may not be used in any manner that
 competes with the business of Gaussian, Inc. or will provide
 assistance to any competitor of Gaussian, Inc.  The licensee
 of this program is prohibited from giving any competitor of
 Gaussian, Inc. access to this program.  By using this program,
 the user acknowledges that Gaussian, Inc. is engaged in the
 business of creating and licensing software in the field of
 computational chemistry and represents and warrants to the
 licensee that it is not a competitor of Gaussian, Inc. and that
 it will not use this program in any manner prohibited above.
 ---------------------------------------------------------------
  

 Cite this work as:
 Gaussian 16, Revision A.03,
 M. J. Frisch, G. W. Trucks, H. B. Schlegel, G. E. Scuseria, 
 M. A. Robb, J. R. Cheeseman, G. Scalmani, V. Barone, 
 G. A. Petersson, H. Nakatsuji, X. Li, M. Caricato, A. V. Marenich, 
 J. Bloino, B. G. Janesko, R. Gomperts, B. Mennucci, H. P. Hratchian, 
 J. V. Ortiz, A. F. Izmaylov, J. L. Sonnenberg, D. Williams-Young, 
 F. Ding, F. Lipparini, F. Egidi, J. Goings, B. Peng, A. Petrone, 
 T. Henderson, D. Ranasinghe, V. G. Zakrzewski, J. Gao, N. Rega, 
 G. Zheng, W. Liang, M. Hada, M. Ehara, K. Toyota, R. Fukuda, 
 J. Hasegawa, M. Ishida, T. Nakajima, Y. Honda, O. Kitao, H. Nakai, 
 T. Vreven, K. Throssell, J. A. Montgomery, Jr., J. E. Peralta, 
 F. Ogliaro, M. J. Bearpark, J. J. Heyd, E. N. Brothers, K. N. Kudin, 
 V. N. Staroverov, T. A. Keith, R. Kobayashi, J. Normand, 
 K. Raghavachari, A. P. Rendell, J. C. Burant, S. S. Iyengar, 
 J. Tomasi, M. Cossi, J. M. Millam, M. Klene, C. Adamo, R. Cammi, 
 J. W. Ochterski, R. L. Martin, K. Morokuma, O. Farkas, 
 J. B. Foresman, and D. J. Fox, Gaussian, Inc., Wallingford CT, 2016.
 
 ******************************************
 Gaussian 16:  ES64L-G16RevA.03 25-Dec-2016
                29-Apr-2022 
 ******************************************
 %chk=DPPHFGbp.chk
 %nprocshared=20
 Will use up to   20 processors via shared memory.
 %mem=20GB
 ----------------------------------------------------------------------
 # opt freq 6-31+g(d,p) geom=check guess=check iop(1/8=4) scrf(smd,solv
 ent=ethanol) m052x scf=(xqc,direct)
 ----------------------------------------------------------------------
 1/8=4,18=20,19=15,26=3,29=2,38=1/1,3;
 2/9=110,12=2,40=1/2;
 3/5=1,6=6,7=111,11=2,14=-4,25=1,30=1,70=32201,71=1,72=4,74=-38,116=-2/1,2,3;
 4/5=1/1;
 5/5=2,8=3,13=1,38=6,53=4/2,8;
 6/7=2,8=2,9=2,10=2,28=1/1;
 7//1,2,3,16;
 1/8=4,18=20,19=15,26=3/3(2);
 2/9=110/2;
 99//99;
 2/9=110/2;
 3/5=1,6=6,7=111,11=2,14=-2,25=1,30=1,70=32205,71=1,72=4,74=-38/1,2,3;
 4/5=5,16=3,69=1/1;
 5/5=2,8=3,13=1,38=5,53=4/2,8;
 7//1,2,3,16;
 1/8=4,18=20,19=15,26=3/3(-5);
 2/9=110/2;
 6/7=2,8=2,9=2,10=2,19=2,28=1/1;
 99/9=1/99;
 -------------------
 Title Card Required
 -------------------
 Structure from the checkpoint file:  "DPPHFGbp.chk"
 Charge =  0 Multiplicity = 2
 Redundant internal coordinates found in file.  (old form).
 N,0,-1.5597683364,-0.2386466674,0.1371424407
 N,0,-0.5864268905,-1.1136454968,-0.0075753172
 C,0,-2.8603284213,-0.6599434391,-0.2279556939
 C,0,-3.976338686,-0.1824859047,0.4650429072
 C,0,-3.0015361292,-1.5711205474,-1.2766286768
 C,0,-5.2412653973,-0.6236272865,0.0959779506
 H,0,-3.8527913392,0.5090278987,1.2878770789
 C,0,-4.2729202234,-2.0058092454,-1.6284932911
 H,0,-2.1207357013,-1.9089692983,-1.8038937024
 C,0,-5.3948923317,-1.5346061987,-0.9480097146
 H,0,-6.1078487789,-0.2620109438,0.634463026
 H,0,-4.3877414671,-2.7073765363,-2.444750081
 H,0,-6.3831697598,-1.8745262963,-1.229772054
 C,0,0.686556948,-0.6608548778,-0.1626873626
 C,0,1.1485208654,0.423290726,-0.960529179
 C,0,1.7236238264,-1.4109451238,0.4474800227
 C,0,2.4883807049,0.7483158413,-1.0866567305
 C,0,3.0663963291,-1.1503224567,0.3008304682
 C,0,3.4327665814,-0.0439800929,-0.4570426388
 H,0,2.7882876654,1.587965544,-1.6976360581
 H,0,3.8101607773,-1.7699339334,0.7824795391
 C,0,-1.3501676685,1.0203009143,0.7874170073
 C,0,-1.8581217771,2.187242399,0.2188831121
 C,0,-0.629976528,1.0449896762,1.9825900765
 C,0,-1.632818823,3.4009545893,0.8594953357
 H,0,-2.3973954403,2.1370275323,-0.7191895205
 C,0,-0.4098470394,2.267208467,2.6086104621
 H,0,-0.2671719685,0.1159446888,2.4069309118
 C,0,-0.9085960355,3.4433567632,2.0498257322
 H,0,-2.0100924904,4.3142648717,0.4182202234
 H,0,0.1438127027,2.2983418768,3.5382325119
 H,0,-0.7316356811,4.3918672646,2.5405457604
 N,0,4.847902009,0.2815973469,-0.6037854374
 O,0,5.6474229275,-0.4456709018,-0.0454245718
 O,0,5.1320057078,1.2575770211,-1.2714675907
 N,0,0.2396124566,1.1836172257,-1.8196607932
 O,0,-0.7400639312,0.605598418,-2.2546965165
 O,0,0.5434087201,2.3319582341,-2.0795448417
 O,0,1.984243541,-3.5373902551,1.253481088
 O,0,0.5362656224,-2.2582266529,2.2222053794
 N,0,1.3717134602,-2.4959101438,1.3727297379
 Recover connectivity data from disk.

 GradGradGradGradGradGradGradGradGradGradGradGradGradGradGradGradGradGrad
 Berny optimization.
 Initialization pass.
                           ----------------------------
                           !    Initial Parameters    !
                           ! (Angstroms and Degrees)  !
 --------------------------                            --------------------------
 ! Name  Definition              Value          Derivative Info.                !
 --------------------------------------------------------------------------------
 ! R1    R(1,2)                  1.3168         estimate D2E/DX2                !
 ! R2    R(1,3)                  1.415          estimate D2E/DX2                !
 ! R3    R(1,22)                 1.4324         estimate D2E/DX2                !
 ! R4    R(2,14)                 1.36           estimate D2E/DX2                !
 ! R5    R(3,4)                  1.3977         estimate D2E/DX2                !
 ! R6    R(3,5)                  1.3964         estimate D2E/DX2                !
 ! R7    R(4,6)                  1.3896         estimate D2E/DX2                !
 ! R8    R(4,7)                  1.0819         estimate D2E/DX2                !
 ! R9    R(5,8)                  1.3889         estimate D2E/DX2                !
 ! R10   R(5,9)                  1.0807         estimate D2E/DX2                !
 ! R11   R(6,10)                 1.3941         estimate D2E/DX2                !
 ! R12   R(6,11)                 1.0825         estimate D2E/DX2                !
 ! R13   R(8,10)                 1.3942         estimate D2E/DX2                !
 ! R14   R(8,12)                 1.0824         estimate D2E/DX2                !
 ! R15   R(10,13)                1.0824         estimate D2E/DX2                !
 ! R16   R(14,15)                1.4231         estimate D2E/DX2                !
 ! R17   R(14,16)                1.4179         estimate D2E/DX2                !
 ! R18   R(15,17)                1.3845         estimate D2E/DX2                !
 ! R19   R(15,36)                1.4637         estimate D2E/DX2                !
 ! R20   R(16,18)                1.3757         estimate D2E/DX2                !
 ! R21   R(16,41)                1.4687         estimate D2E/DX2                !
 ! R22   R(17,19)                1.3842         estimate D2E/DX2                !
 ! R23   R(17,20)                1.0809         estimate D2E/DX2                !
 ! R24   R(18,19)                1.3902         estimate D2E/DX2                !
 ! R25   R(18,21)                1.0812         estimate D2E/DX2                !
 ! R26   R(19,33)                1.4595         estimate D2E/DX2                !
 ! R27   R(22,23)                1.3939         estimate D2E/DX2                !
 ! R28   R(22,24)                1.3956         estimate D2E/DX2                !
 ! R29   R(23,25)                1.3908         estimate D2E/DX2                !
 ! R30   R(23,26)                1.0832         estimate D2E/DX2                !
 ! R31   R(24,27)                1.3907         estimate D2E/DX2                !
 ! R32   R(24,28)                1.0839         estimate D2E/DX2                !
 ! R33   R(25,29)                1.394          estimate D2E/DX2                !
 ! R34   R(25,30)                1.0822         estimate D2E/DX2                !
 ! R35   R(27,29)                1.3944         estimate D2E/DX2                !
 ! R36   R(27,31)                1.0825         estimate D2E/DX2                !
 ! R37   R(29,32)                1.0825         estimate D2E/DX2                !
 ! R38   R(33,34)                1.2165         estimate D2E/DX2                !
 ! R39   R(33,35)                1.2162         estimate D2E/DX2                !
 ! R40   R(36,37)                1.2178         estimate D2E/DX2                !
 ! R41   R(36,38)                1.2159         estimate D2E/DX2                !
 ! R42   R(39,41)                1.2141         estimate D2E/DX2                !
 ! R43   R(40,41)                1.2149         estimate D2E/DX2                !
 ! A1    A(2,1,3)              116.9485         estimate D2E/DX2                !
 ! A2    A(2,1,22)             121.7194         estimate D2E/DX2                !
 ! A3    A(3,1,22)             120.8847         estimate D2E/DX2                !
 ! A4    A(1,2,14)             118.8937         estimate D2E/DX2                !
 ! A5    A(1,3,4)              120.2802         estimate D2E/DX2                !
 ! A6    A(1,3,5)              118.7503         estimate D2E/DX2                !
 ! A7    A(4,3,5)              120.9637         estimate D2E/DX2                !
 ! A8    A(3,4,6)              119.1238         estimate D2E/DX2                !
 ! A9    A(3,4,7)              120.2804         estimate D2E/DX2                !
 ! A10   A(6,4,7)              120.5885         estimate D2E/DX2                !
 ! A11   A(3,5,8)              119.1455         estimate D2E/DX2                !
 ! A12   A(3,5,9)              119.207          estimate D2E/DX2                !
 ! A13   A(8,5,9)              121.6409         estimate D2E/DX2                !
 ! A14   A(4,6,10)             120.4429         estimate D2E/DX2                !
 ! A15   A(4,6,11)             119.3793         estimate D2E/DX2                !
 ! A16   A(10,6,11)            120.1741         estimate D2E/DX2                !
 ! A17   A(5,8,10)             120.4769         estimate D2E/DX2                !
 ! A18   A(5,8,12)             119.4049         estimate D2E/DX2                !
 ! A19   A(10,8,12)            120.1149         estimate D2E/DX2                !
 ! A20   A(6,10,8)             119.8463         estimate D2E/DX2                !
 ! A21   A(6,10,13)            120.0512         estimate D2E/DX2                !
 ! A22   A(8,10,13)            120.1025         estimate D2E/DX2                !
 ! A23   A(2,14,15)            128.4194         estimate D2E/DX2                !
 ! A24   A(2,14,16)            117.3489         estimate D2E/DX2                !
 ! A25   A(15,14,16)           114.006          estimate D2E/DX2                !
 ! A26   A(14,15,17)           122.9607         estimate D2E/DX2                !
 ! A27   A(14,15,36)           121.5486         estimate D2E/DX2                !
 ! A28   A(17,15,36)           115.185          estimate D2E/DX2                !
 ! A29   A(14,16,18)           124.5985         estimate D2E/DX2                !
 ! A30   A(14,16,41)           119.1203         estimate D2E/DX2                !
 ! A31   A(18,16,41)           116.1669         estimate D2E/DX2                !
 ! A32   A(15,17,19)           118.9771         estimate D2E/DX2                !
 ! A33   A(15,17,20)           120.1589         estimate D2E/DX2                !
 ! A34   A(19,17,20)           120.8279         estimate D2E/DX2                !
 ! A35   A(16,18,19)           117.7831         estimate D2E/DX2                !
 ! A36   A(16,18,21)           121.0226         estimate D2E/DX2                !
 ! A37   A(19,18,21)           121.1724         estimate D2E/DX2                !
 ! A38   A(17,19,18)           121.5799         estimate D2E/DX2                !
 ! A39   A(17,19,33)           119.2161         estimate D2E/DX2                !
 ! A40   A(18,19,33)           119.2008         estimate D2E/DX2                !
 ! A41   A(1,22,23)            119.8223         estimate D2E/DX2                !
 ! A42   A(1,22,24)            118.6749         estimate D2E/DX2                !
 ! A43   A(23,22,24)           121.5021         estimate D2E/DX2                !
 ! A44   A(22,23,25)           118.9263         estimate D2E/DX2                !
 ! A45   A(22,23,26)           119.7248         estimate D2E/DX2                !
 ! A46   A(25,23,26)           121.333          estimate D2E/DX2                !
 ! A47   A(22,24,27)           118.8626         estimate D2E/DX2                !
 ! A48   A(22,24,28)           119.5274         estimate D2E/DX2                !
 ! A49   A(27,24,28)           121.6054         estimate D2E/DX2                !
 ! A50   A(23,25,29)           120.2672         estimate D2E/DX2                !
 ! A51   A(23,25,30)           119.4849         estimate D2E/DX2                !
 ! A52   A(29,25,30)           120.2403         estimate D2E/DX2                !
 ! A53   A(24,27,29)           120.2832         estimate D2E/DX2                !
 ! A54   A(24,27,31)           119.5257         estimate D2E/DX2                !
 ! A55   A(29,27,31)           120.1886         estimate D2E/DX2                !
 ! A56   A(25,29,27)           120.1566         estimate D2E/DX2                !
 ! A57   A(25,29,32)           119.9127         estimate D2E/DX2                !
 ! A58   A(27,29,32)           119.9306         estimate D2E/DX2                !
 ! A59   A(19,33,34)           117.241          estimate D2E/DX2                !
 ! A60   A(19,33,35)           117.4338         estimate D2E/DX2                !
 ! A61   A(34,33,35)           125.3251         estimate D2E/DX2                !
 ! A62   A(15,36,37)           117.5593         estimate D2E/DX2                !
 ! A63   A(15,36,38)           117.4447         estimate D2E/DX2                !
 ! A64   A(37,36,38)           124.951          estimate D2E/DX2                !
 ! A65   A(16,41,39)           116.803          estimate D2E/DX2                !
 ! A66   A(16,41,40)           117.4337         estimate D2E/DX2                !
 ! A67   A(39,41,40)           125.6907         estimate D2E/DX2                !
 ! D1    D(3,1,2,14)           155.6536         estimate D2E/DX2                !
 ! D2    D(22,1,2,14)          -31.9602         estimate D2E/DX2                !
 ! D3    D(2,1,3,4)            146.6647         estimate D2E/DX2                !
 ! D4    D(2,1,3,5)            -32.4683         estimate D2E/DX2                !
 ! D5    D(22,1,3,4)           -25.7889         estimate D2E/DX2                !
 ! D6    D(22,1,3,5)           155.0781         estimate D2E/DX2                !
 ! D7    D(2,1,22,23)          134.7287         estimate D2E/DX2                !
 ! D8    D(2,1,22,24)          -44.9858         estimate D2E/DX2                !
 ! D9    D(3,1,22,23)          -53.1817         estimate D2E/DX2                !
 ! D10   D(3,1,22,24)          127.1038         estimate D2E/DX2                !
 ! D11   D(1,2,14,15)          -42.6023         estimate D2E/DX2                !
 ! D12   D(1,2,14,16)          143.2238         estimate D2E/DX2                !
 ! D13   D(1,3,4,6)           -179.286          estimate D2E/DX2                !
 ! D14   D(1,3,4,7)             -0.2637         estimate D2E/DX2                !
 ! D15   D(5,3,4,6)             -0.1725         estimate D2E/DX2                !
 ! D16   D(5,3,4,7)            178.8499         estimate D2E/DX2                !
 ! D17   D(1,3,5,8)            179.0279         estimate D2E/DX2                !
 ! D18   D(1,3,5,9)             -1.8929         estimate D2E/DX2                !
 ! D19   D(4,3,5,8)             -0.099          estimate D2E/DX2                !
 ! D20   D(4,3,5,9)            178.9803         estimate D2E/DX2                !
 ! D21   D(3,4,6,10)             0.2638         estimate D2E/DX2                !
 ! D22   D(3,4,6,11)           179.5643         estimate D2E/DX2                !
 ! D23   D(7,4,6,10)          -178.7554         estimate D2E/DX2                !
 ! D24   D(7,4,6,11)             0.5451         estimate D2E/DX2                !
 ! D25   D(3,5,8,10)             0.2819         estimate D2E/DX2                !
 ! D26   D(3,5,8,12)           179.6232         estimate D2E/DX2                !
 ! D27   D(9,5,8,10)          -178.774          estimate D2E/DX2                !
 ! D28   D(9,5,8,12)             0.5672         estimate D2E/DX2                !
 ! D29   D(4,6,10,8)            -0.0845         estimate D2E/DX2                !
 ! D30   D(4,6,10,13)          179.9579         estimate D2E/DX2                !
 ! D31   D(11,6,10,8)         -179.3794         estimate D2E/DX2                !
 ! D32   D(11,6,10,13)           0.6629         estimate D2E/DX2                !
 ! D33   D(5,8,10,6)            -0.1927         estimate D2E/DX2                !
 ! D34   D(5,8,10,13)          179.7649         estimate D2E/DX2                !
 ! D35   D(12,8,10,6)         -179.5293         estimate D2E/DX2                !
 ! D36   D(12,8,10,13)           0.4283         estimate D2E/DX2                !
 ! D37   D(2,14,15,17)        -176.7592         estimate D2E/DX2                !
 ! D38   D(2,14,15,36)          -3.4172         estimate D2E/DX2                !
 ! D39   D(16,14,15,17)         -2.4235         estimate D2E/DX2                !
 ! D40   D(16,14,15,36)        170.9184         estimate D2E/DX2                !
 ! D41   D(2,14,16,18)         174.6962         estimate D2E/DX2                !
 ! D42   D(2,14,16,41)          -9.3484         estimate D2E/DX2                !
 ! D43   D(15,14,16,18)         -0.3092         estimate D2E/DX2                !
 ! D44   D(15,14,16,41)        175.6462         estimate D2E/DX2                !
 ! D45   D(14,15,17,19)          2.7635         estimate D2E/DX2                !
 ! D46   D(14,15,17,20)       -179.402          estimate D2E/DX2                !
 ! D47   D(36,15,17,19)       -170.9681         estimate D2E/DX2                !
 ! D48   D(36,15,17,20)          6.8664         estimate D2E/DX2                !
 ! D49   D(14,15,36,37)        -28.4103         estimate D2E/DX2                !
 ! D50   D(14,15,36,38)        153.9088         estimate D2E/DX2                !
 ! D51   D(17,15,36,37)        145.4184         estimate D2E/DX2                !
 ! D52   D(17,15,36,38)        -32.2625         estimate D2E/DX2                !
 ! D53   D(14,16,18,19)          2.5707         estimate D2E/DX2                !
 ! D54   D(14,16,18,21)       -179.1121         estimate D2E/DX2                !
 ! D55   D(41,16,18,19)       -173.4926         estimate D2E/DX2                !
 ! D56   D(41,16,18,21)          4.8246         estimate D2E/DX2                !
 ! D57   D(14,16,41,39)        136.0195         estimate D2E/DX2                !
 ! D58   D(14,16,41,40)        -46.9015         estimate D2E/DX2                !
 ! D59   D(18,16,41,39)        -47.6896         estimate D2E/DX2                !
 ! D60   D(18,16,41,40)        129.3894         estimate D2E/DX2                !
 ! D61   D(15,17,19,18)         -0.3012         estimate D2E/DX2                !
 ! D62   D(15,17,19,33)        179.0458         estimate D2E/DX2                !
 ! D63   D(20,17,19,18)       -178.1208         estimate D2E/DX2                !
 ! D64   D(20,17,19,33)          1.2262         estimate D2E/DX2                !
 ! D65   D(16,18,19,17)         -2.246          estimate D2E/DX2                !
 ! D66   D(16,18,19,33)        178.4069         estimate D2E/DX2                !
 ! D67   D(21,18,19,17)        179.4395         estimate D2E/DX2                !
 ! D68   D(21,18,19,33)          0.0923         estimate D2E/DX2                !
 ! D69   D(17,19,33,34)       -179.3392         estimate D2E/DX2                !
 ! D70   D(17,19,33,35)          0.7747         estimate D2E/DX2                !
 ! D71   D(18,19,33,34)          0.0236         estimate D2E/DX2                !
 ! D72   D(18,19,33,35)       -179.8626         estimate D2E/DX2                !
 ! D73   D(1,22,23,25)        -179.3982         estimate D2E/DX2                !
 ! D74   D(1,22,23,26)          -0.8271         estimate D2E/DX2                !
 ! D75   D(24,22,23,25)          0.308          estimate D2E/DX2                !
 ! D76   D(24,22,23,26)        178.8791         estimate D2E/DX2                !
 ! D77   D(1,22,24,27)         179.2077         estimate D2E/DX2                !
 ! D78   D(1,22,24,28)          -1.5531         estimate D2E/DX2                !
 ! D79   D(23,22,24,27)         -0.5018         estimate D2E/DX2                !
 ! D80   D(23,22,24,28)        178.7374         estimate D2E/DX2                !
 ! D81   D(22,23,25,29)          0.0757         estimate D2E/DX2                !
 ! D82   D(22,23,25,30)        179.0713         estimate D2E/DX2                !
 ! D83   D(26,23,25,29)       -178.4716         estimate D2E/DX2                !
 ! D84   D(26,23,25,30)          0.5241         estimate D2E/DX2                !
 ! D85   D(22,24,27,29)          0.3132         estimate D2E/DX2                !
 ! D86   D(22,24,27,31)        179.7432         estimate D2E/DX2                !
 ! D87   D(28,24,27,29)       -178.9096         estimate D2E/DX2                !
 ! D88   D(28,24,27,31)          0.5205         estimate D2E/DX2                !
 ! D89   D(23,25,29,27)         -0.2575         estimate D2E/DX2                !
 ! D90   D(23,25,29,32)        179.6397         estimate D2E/DX2                !
 ! D91   D(30,25,29,27)       -179.2455         estimate D2E/DX2                !
 ! D92   D(30,25,29,32)          0.6517         estimate D2E/DX2                !
 ! D93   D(24,27,29,25)          0.0594         estimate D2E/DX2                !
 ! D94   D(24,27,29,32)       -179.8378         estimate D2E/DX2                !
 ! D95   D(31,27,29,25)       -179.3668         estimate D2E/DX2                !
 ! D96   D(31,27,29,32)          0.736          estimate D2E/DX2                !
 --------------------------------------------------------------------------------
 Trust Radius=4.00D-02 FncErr=1.00D-07 GrdErr=1.00D-06 EigMax=2.50D+02 EigMin=1.00D-04
 Number of steps in this run=    216 maximum allowed number of steps=    246.
 GradGradGradGradGradGradGradGradGradGradGradGradGradGradGradGradGradGrad

                          Input orientation:                          
 ---------------------------------------------------------------------
 Center     Atomic      Atomic             Coordinates (Angstroms)
 Number     Number       Type             X           Y           Z
 ---------------------------------------------------------------------
      1          7           0       -1.559768   -0.238647    0.137142
      2          7           0       -0.586427   -1.113645   -0.007575
      3          6           0       -2.860328   -0.659943   -0.227956
      4          6           0       -3.976339   -0.182486    0.465043
      5          6           0       -3.001536   -1.571121   -1.276629
      6          6           0       -5.241265   -0.623627    0.095978
      7          1           0       -3.852791    0.509028    1.287877
      8          6           0       -4.272920   -2.005809   -1.628493
      9          1           0       -2.120736   -1.908969   -1.803894
     10          6           0       -5.394892   -1.534606   -0.948010
     11          1           0       -6.107849   -0.262011    0.634463
     12          1           0       -4.387741   -2.707377   -2.444750
     13          1           0       -6.383170   -1.874526   -1.229772
     14          6           0        0.686557   -0.660855   -0.162687
     15          6           0        1.148521    0.423291   -0.960529
     16          6           0        1.723624   -1.410945    0.447480
     17          6           0        2.488381    0.748316   -1.086657
     18          6           0        3.066396   -1.150322    0.300830
     19          6           0        3.432767   -0.043980   -0.457043
     20          1           0        2.788288    1.587966   -1.697636
     21          1           0        3.810161   -1.769934    0.782480
     22          6           0       -1.350168    1.020301    0.787417
     23          6           0       -1.858122    2.187242    0.218883
     24          6           0       -0.629977    1.044990    1.982590
     25          6           0       -1.632819    3.400955    0.859495
     26          1           0       -2.397395    2.137028   -0.719190
     27          6           0       -0.409847    2.267208    2.608610
     28          1           0       -0.267172    0.115945    2.406931
     29          6           0       -0.908596    3.443357    2.049826
     30          1           0       -2.010092    4.314265    0.418220
     31          1           0        0.143813    2.298342    3.538233
     32          1           0       -0.731636    4.391867    2.540546
     33          7           0        4.847902    0.281597   -0.603785
     34          8           0        5.647423   -0.445671   -0.045425
     35          8           0        5.132006    1.257577   -1.271468
     36          7           0        0.239612    1.183617   -1.819661
     37          8           0       -0.740064    0.605598   -2.254697
     38          8           0        0.543409    2.331958   -2.079545
     39          8           0        1.984244   -3.537390    1.253481
     40          8           0        0.536266   -2.258227    2.222205
     41          7           0        1.371713   -2.495910    1.372730
 ---------------------------------------------------------------------
                    Distance matrix (angstroms):
                    1          2          3          4          5
     1  N    0.000000
     2  N    1.316799   0.000000
     3  C    1.415007   2.329172   0.000000
     4  C    2.439362   3.547101   1.397745   0.000000
     5  C    2.419283   2.766321   1.396388   2.431453   0.000000
     6  C    3.701800   4.681705   2.403146   1.389552   2.792522
     7  H    2.672295   3.870453   2.156206   1.081902   3.410036
     8  C    3.688025   4.124750   2.401724   2.792018   1.388949
     9  H    2.621504   2.492670   2.142579   3.401776   1.080722
    10  C    4.191091   4.917618   2.776243   2.416038   2.416087
    11  H    4.575250   5.623486   3.383564   2.139711   3.874947
    12  H    4.556120   4.788506   3.382181   3.874432   2.139428
    13  H    5.273496   5.972850   3.858660   3.395325   3.395541
    14  C    2.305241   1.359988   3.547486   4.729215   3.958722
    15  C    2.996310   2.506060   4.216744   5.353822   4.615254
    16  C    3.500180   2.373141   4.693915   5.830866   5.032429
    17  C    4.342728   3.753100   5.597254   6.713178   5.962806
    18  C    4.717981   3.666003   5.970440   7.110822   6.283729
    19  C    5.031536   4.183315   6.327317   7.467548   6.663642
    20  H    5.060486   4.641520   6.254592   7.319279   6.609019
    21  H    5.621160   4.514962   6.837286   7.953008   7.118895
    22  C    1.432389   2.401883   2.476850   2.906440   3.701725
    23  C    2.445533   3.544623   3.051319   3.187954   4.203480
    24  C    2.432676   2.936386   3.573203   3.873988   4.805292
    25  C    3.711311   4.714696   4.379523   4.299852   5.581930
    26  H    2.660592   3.788519   2.877267   3.045589   3.798169
    27  C    3.702672   4.278526   4.755963   4.828638   6.045222
    28  H    2.635997   2.728306   3.777445   4.197369   4.887898
    29  C    4.199944   5.010286   5.082777   5.006927   6.371082
    30  H    4.583754   5.627640   5.087553   4.908063   6.204292
    31  H    4.572298   4.974702   5.653361   5.707420   6.931728
    32  H    5.282406   6.068334   6.141394   5.980010   7.435085
    33  N    6.471311   5.642172   7.774610   8.900842   8.093143
    34  O    7.212475   6.269650   8.512406   9.640883   8.808348
    35  O    7.000193   6.318274   8.285120   9.383559   8.611391
    36  N    3.014910   3.040298   3.942318   4.986016   4.288182
    37  O    2.665625   2.833542   3.194495   4.300178   3.287701
    38  O    3.993127   4.176335   4.895435   5.764154   5.333417
    39  O    4.968696   3.751420   5.826168   6.885169   5.926691
    40  O    3.580440   2.746348   4.482706   5.268768   5.022947
    41  N    3.900705   2.765902   4.882944   5.897244   5.196119
                    6          7          8          9         10
     6  C    0.000000
     7  H    2.152067   0.000000
     8  C    2.412866   3.873775   0.000000
     9  H    3.872896   4.290195   2.161491   0.000000
    10  C    1.394057   3.399074   1.394242   3.404818   0.000000
    11  H    1.082451   2.471181   3.395404   4.955313   2.152214
    12  H    3.394969   4.956202   1.082430   2.487462   2.151738
    13  H    2.150885   4.292168   2.151596   4.301063   1.082418
    14  C    5.933580   4.906979   5.343585   3.483136   6.193884
    15  C    6.560611   5.484141   5.978188   4.103503   6.830064
    16  C    7.018056   5.957262   6.373544   4.482835   7.255064
    17  C    7.939035   6.775406   7.320791   5.368384   8.208346
    18  C    8.326861   7.183513   7.636735   5.649048   8.561582
    19  C    8.710950   7.511985   8.037330   6.011121   8.966079
    20  H    8.519502   7.360797   7.923424   6.028130   8.790724
    21  H    9.149515   8.010614   8.438283   6.471800   9.369257
    22  C    4.280331   2.602880   4.851438   3.986137   5.089111
    23  C    4.400199   2.817421   5.179356   4.575974   5.265220
    24  C    5.254291   3.340122   5.968110   5.028488   6.160126
    25  C    5.459039   3.670835   6.511015   5.960453   6.463748
    26  H    4.046395   2.965953   4.637620   4.198001   4.745339
    27  C    6.165457   4.085266   7.150878   6.311719   7.207914
    28  H    5.534354   3.776700   6.068979   5.026631   6.346137
    29  C    6.255390   4.226007   7.385264   6.705806   7.341252
    30  H    5.909915   4.316442   7.018031   6.608984   6.894400
    31  H    7.027523   4.923270   8.045390   7.167144   8.092905
    32  H    7.174110   5.136850   8.417354   7.778451   8.308975
    33  N   10.153837   8.906861   9.458946   7.402753  10.408262
    34  O   10.891060   9.640706  10.166285   8.098009  11.132527
    35  O   10.630785   9.372148   9.961415   7.931756  10.895710
    36  N    6.080775   5.182628   5.529190   3.890448   6.316341
    37  O    5.224699   4.716802   4.437641   2.903882   5.287280
    38  O    6.850609   5.830024   6.497438   5.015886   7.175940
    39  O    7.876408   7.102511   7.057168   5.371234   7.956717
    40  O    6.369664   5.272048   6.166025   4.836436   6.764061
    41  N    6.990496   6.027628   6.411663   4.757377   7.217818
                   11         12         13         14         15
    11  H    0.000000
    12  H    4.291869   0.000000
    13  H    2.480198   2.480231   0.000000
    14  C    6.852625   5.928285   7.252083   0.000000
    15  C    7.461135   6.531018   7.879011   1.423142   0.000000
    16  C    7.917511   6.884367   8.291452   1.417902   2.382783
    17  C    8.824861   7.814556   9.252253   2.466992   1.384476
    18  C    9.223187   8.094863   9.600079   2.473472   2.783080
    19  C    9.605325   8.497353  10.015020   2.829991   2.385292
    20  H    9.380956   8.396638   9.814447   3.439554   2.142109
    21  H   10.033078   8.859989  10.390577   3.446781   3.864278
    22  C    4.929832   5.793905   6.146559   2.806640   3.107279
    23  C    4.922573   6.119740   6.250810   3.838313   3.680005
    24  C    5.790750   6.913927   7.207085   3.040622   3.494498
    25  C    5.787387   7.471235   7.400106   4.787761   4.462603
    26  H    4.621171   5.514280   5.677997   4.201024   3.945714
    27  C    6.539223   8.130596   8.219959   4.178008   4.308979
    28  H    6.115390   6.963408   7.388708   2.848851   3.665847
    29  C    6.539513   8.374795   8.307021   4.927908   4.734423
    30  H    6.146598   7.946903   7.755051   5.688690   5.197833
    31  H    7.353268   9.021545   9.096604   4.769510   4.976355
    32  H    7.361753   9.413796   9.242447   5.903282   5.616237
    33  N   11.038897   9.880295  11.453283   4.289473   3.719242
    34  O   11.776349  10.562983  12.172899   4.966915   4.672540
    35  O   11.501132  10.378971  11.933611   4.967070   4.081773
    36  N    6.957214   6.078073   7.318569   2.519404   1.463666
    37  O    6.157362   4.931275   6.248690   2.831193   2.296706
    38  O    7.637653   7.060065   8.148258   3.556932   2.293767
    39  O    8.751757   7.414043   8.885115   3.458899   4.613813
    40  O    7.116885   6.799122   7.742219   2.874352   4.206565
    41  N    7.840867   6.912973   8.203496   2.488850   3.743748
                   16         17         18         19         20
    16  C    0.000000
    17  C    2.756961   0.000000
    18  C    1.375670   2.421580   0.000000
    19  C    2.368105   1.384201   1.390177   0.000000
    20  H    3.837772   1.080857   3.401387   2.148877   0.000000
    21  H    2.143533   3.403286   1.081245   2.158184   4.297754
    22  C    3.933791   4.280255   4.945140   5.055476   4.860509
    23  C    5.082137   4.760990   5.949532   5.781758   5.061749
    24  C    3.731972   4.385481   4.616371   4.862463   5.052071
    25  C    5.881313   5.273356   6.565733   6.265860   5.419597
    26  H    5.561657   5.092579   6.457564   6.230273   5.305670
    27  C    4.769800   4.935763   5.393481   5.431897   5.406773
    28  H    3.183411   4.494232   4.141469   4.681609   5.324486
    29  C    5.749812   5.351656   6.321506   6.106827   5.581478
    30  H    6.835168   5.934384   7.459640   7.027453   5.910500
    31  H    5.080095   5.411948   5.560176   5.680309   5.908655
    32  H    6.639417   6.066347   7.082178   6.782664   6.181740
    33  N    3.705533   2.453229   2.458147   1.459501   2.673035
    34  O    4.070738   3.534023   2.697800   2.288119   3.878161
    35  O    4.657559   2.698565   3.540740   2.290142   2.404951
    36  N    3.751529   2.404941   4.234910   3.682385   2.583434
    37  O    4.175879   3.436210   4.909492   4.589774   3.704676
    38  O    4.667771   2.697530   4.915072   4.077497   2.395592
    39  O    2.288958   4.908938   2.788672   4.150666   5.968656
    40  O    2.297250   4.878383   3.364624   4.524486   5.935483
    41  N    1.468699   4.221437   2.414855   3.688898   5.302063
                   21         22         23         24         25
    21  H    0.000000
    22  C    5.866381   0.000000
    23  C    6.935871   1.393916   0.000000
    24  C    5.392484   1.395609   2.433874   0.000000
    25  C    7.507999   2.398458   1.390771   2.795998   0.000000
    26  H    7.486863   2.147936   1.083198   3.408215   2.162021
    27  C    6.118966   2.399110   2.795477   1.390747   2.416701
    28  H    4.777031   2.147921   3.407191   1.083890   3.879541
    29  C    7.145014   2.767645   2.414906   2.415432   1.393981
    30  H    8.427663   3.379646   2.141741   3.878161   1.082218
    31  H    6.130836   3.381176   3.877907   2.142350   3.398206
    32  H    7.854076   3.850130   3.394033   3.394590   2.149411
    33  N    2.684663   6.395091   7.019902   6.105674   7.339709
    34  O    2.411354   7.197845   7.958347   6.763184   8.283558
    35  O    3.889961   6.805430   7.207448   6.620765   7.409313
    36  N    5.314453   3.057929   3.092477   3.902885   3.949742
    37  O    5.964238   3.130281   3.141695   4.261430   4.278927
    38  O    5.973975   3.677709   3.327321   4.419735   3.810076
    39  O    2.584515   5.666398   6.971770   5.325782   7.834475
    40  O    3.609658   4.045490   5.432181   3.511235   6.211943
    41  N    2.611793   4.484971   5.804749   4.112987   6.638045
                   26         27         28         29         30
    26  H    0.000000
    27  C    3.878344   0.000000
    28  H    4.288969   2.165402   0.000000
    29  C    3.404477   1.394387   3.407436   0.000000
    30  H    2.486778   3.398387   4.961717   2.152652   0.000000
    31  H    4.960787   1.082453   2.492310   2.152668   4.293918
    32  H    4.299411   2.149966   4.303149   1.082494   2.478859
    33  N    7.479992   6.473489   5.937662   7.083477   8.021159
    34  O    8.476048   7.148016   6.427433   7.905441   9.028261
    35  O    7.600679   6.840065   6.632123   7.231700   7.950343
    36  N    3.012281   4.604949   4.388717   4.625768   4.457605
    37  O    2.729433   5.149927   4.711068   5.158506   4.744646
    38  O    3.246058   4.784526   5.069144   4.516107   4.085185
    39  O    7.435671   6.423505   4.443667   7.598257   8.848778
    40  O    6.047845   4.639397   2.513230   5.884335   7.275709
    41  N    6.328224   5.233417   3.252277   6.397903   7.663301
                   31         32         33         34         35
    31  H    0.000000
    32  H    2.478838   0.000000
    33  N    6.584226   7.610018   0.000000
    34  O    7.117719   8.413169   1.216519   0.000000
    35  O    7.007030   7.664040   1.216162   2.160993   0.000000
    36  N    5.473464   5.499781   4.850601   5.920043   4.923566
    37  O    6.099561   6.109849   5.835739   6.840032   5.989409
    38  O    5.632072   5.216723   4.991043   6.156609   4.781475
    39  O    6.531695   8.479721   5.121977   4.966364   6.267016
    40  O    4.759019   6.777364   5.746924   5.878047   6.759249
    41  N    5.402036   7.295845   4.868783   4.949377   5.934665
                   36         37         38         39         40
    36  N    0.000000
    37  O    1.217837   0.000000
    38  O    1.215944   2.158309   0.000000
    39  O    5.897105   6.074003   6.901762   0.000000
    40  O    5.317046   5.465635   6.290859   2.161325   0.000000
    41  N    5.001193   5.218925   5.992712   1.214123   1.214938
                   41
    41  N    0.000000
 Stoichiometry    C18H12N5O6(2)
 Framework group  C1[X(C18H12N5O6)]
 Deg. of freedom   117
 Full point group                 C1      NOp   1
 Largest Abelian subgroup         C1      NOp   1
 Largest concise Abelian subgroup C1      NOp   1
                         Standard orientation:                         
 ---------------------------------------------------------------------
 Center     Atomic      Atomic             Coordinates (Angstroms)
 Number     Number       Type             X           Y           Z
 ---------------------------------------------------------------------
      1          7           0       -1.562065   -0.222801    0.138577
      2          7           0       -0.604834   -1.111911   -0.026200
      3          6           0       -2.869735   -0.611249   -0.237391
      4          6           0       -3.977574   -0.129902    0.465951
      5          6           0       -3.026472   -1.494485   -1.307543
      6          6           0       -5.249977   -0.538749    0.085572
      7          1           0       -3.842276    0.539464    1.305091
      8          6           0       -4.305233   -1.897172   -1.670578
      9          1           0       -2.151426   -1.835890   -1.842050
     10          6           0       -5.419132   -1.421669   -0.979900
     11          1           0       -6.110384   -0.174117    0.631872
     12          1           0       -4.431999   -2.576904   -2.503375
     13          1           0       -6.413172   -1.736517   -1.270391
     14          6           0        0.676453   -0.679110   -0.169567
     15          6           0        1.159237    0.414991   -0.941057
     16          6           0        1.698816   -1.462485    0.423346
     17          6           0        2.505002    0.718162   -1.058438
     18          6           0        3.046331   -1.223253    0.283919
     19          6           0        3.433900   -0.106153   -0.447156
     20          1           0        2.821035    1.566424   -1.649053
     21          1           0        3.777995   -1.867745    0.751239
     22          6           0       -1.330077    1.016257    0.818765
     23          6           0       -1.815790    2.205549    0.277777
     24          6           0       -0.610952    0.999248    2.014714
     25          6           0       -1.568923    3.399331    0.947242
     26          1           0       -2.354799    2.187596   -0.661619
     27          6           0       -0.369085    2.201976    2.669790
     28          1           0       -0.265815    0.053848    2.417103
     29          6           0       -0.845436    3.400069    2.138774
     30          1           0       -1.928797    4.329673    0.527539
     31          1           0        0.183966    2.200791    3.600294
     32          1           0       -0.651613    4.333224    2.652045
     33          7           0        4.854962    0.196673   -0.585077
     34          8           0        5.640300   -0.558279   -0.043588
     35          8           0        5.157771    1.182842   -1.229148
     36          7           0        0.265491    1.212152   -1.782526
     37          8           0       -0.724155    0.662798   -2.231904
     38          8           0        0.590686    2.360548   -2.014800
     39          8           0        1.919289   -3.611930    1.178730
     40          8           0        0.493980   -2.329672    2.176546
     41          7           0        1.325903   -2.562461    1.322269
 ---------------------------------------------------------------------
 Rotational constants (GHZ):           0.2677933           0.1251032           0.1111664
 Standard basis: 6-31+G(d,p) (6D, 7F)
 There are   611 symmetry adapted cartesian basis functions of A   symmetry.
 There are   611 symmetry adapted basis functions of A   symmetry.
   611 basis functions,  1012 primitive gaussians,   611 cartesian basis functions
   102 alpha electrons      101 beta electrons
       nuclear repulsion energy      2785.6379051065 Hartrees.
 NAtoms=   41 NActive=   41 NUniq=   41 SFac= 1.00D+00 NAtFMM=   60 NAOKFM=F Big=F
 Integral buffers will be    131072 words long.
 Raffenetti 2 integral format.
 Two-electron integral symmetry is turned on.
 ------------------------------------------------------------------------------
 Polarizable Continuum Model (PCM)
 =================================
 Model                : PCM.
 Atomic radii         : SMD-Coulomb.
 Polarization charges : Total charges.
 Charge compensation  : None.
 Solution method      : On-the-fly selection.
 Cavity type          : VdW (van der Waals Surface) (Alpha=1.000).
 Cavity algorithm     : GePol (No added spheres)
                        Default sphere list used, NSphG=   41.
                        Lebedev-Laikov grids with approx.  5.0 points / Ang**2.
                        Smoothing algorithm: York/Karplus (Gamma=1.0000).
                        Polarization charges: spherical gaussians, with
                                              point-specific exponents (IZeta= 3).
                        Self-potential: point-specific (ISelfS= 7).
                        Self-field    : sphere-specific E.n sum rule (ISelfD= 2).
 1st derivatives      : Analytical E(r).r(x)/FMM algorithm (CHGder, D1EAlg=3).
                        Cavity 1st derivative terms included.
 Solvent              : Ethanol, Eps=  24.852000 Eps(inf)=   1.852593
 ------------------------------------------------------------------------------
 ------------------------------------------------------------------------------
 Atomic radii for non-electrostatic terms: SMD-CDS.
 ------------------------------------------------------------------------------
 Nuclear repulsion after PCM non-electrostatic terms =     2785.6480976622 Hartrees.
 One-electron integrals computed using PRISM.
 NBasis=   611 RedAO= T EigKep=  1.10D-06  NBF=   611
 NBsUse=   607 1.00D-06 EigRej=  7.35D-07 NBFU=   607
 Initial guess from the checkpoint file:  "DPPHFGbp.chk"
 B after Tr=     0.000000    0.000000    0.000000
         Rot=    1.000000   -0.000000    0.000000   -0.000000 Ang=   0.00 deg.
 Initial guess <Sx>= 0.0000 <Sy>= 0.0000 <Sz>= 0.5000 <S**2>= 0.7677 S= 0.5088
 Requested convergence on RMS density matrix=1.00D-08 within  32 cycles.
 Requested convergence on MAX density matrix=1.00D-06.
 Requested convergence on             energy=1.00D-06.
 No special actions if energy rises.
 Inv3:  Mode=1 IEnd=    29034963.
 Iteration    1 A*A^-1 deviation from unit magnitude is 7.77D-15 for   1443.
 Iteration    1 A*A^-1 deviation from orthogonality  is 5.12D-15 for   3108   1942.
 Iteration    1 A^-1*A deviation from unit magnitude is 5.55D-15 for   1443.
 Iteration    1 A^-1*A deviation from orthogonality  is 1.45D-11 for   2874   2872.
 Restarting incremental Fock formation.
 Error on total polarization charges =  0.05844
 SCF Done:  E(UM052X) =  -1417.80325400     A.U. after   23 cycles
            NFock= 23  Conv=0.37D-08     -V/T= 2.0089
 <Sx>= 0.0000 <Sy>= 0.0000 <Sz>= 0.5000 <S**2>= 0.7679 S= 0.5089
 <L.S>= 0.000000000000E+00
 SMD-CDS (non-electrostatic) energy       (kcal/mol) =       6.40
 (included in total energy above)
 Annihilation of the first spin contaminant:
 S**2 before annihilation     0.7679,   after     0.7503
 QCSCF skips out because SCF is already converged.

 **********************************************************************

            Population analysis using the SCF density.

 **********************************************************************

 Orbital symmetries:
 Alpha Orbitals:
       Occupied  (A) (A) (A) (A) (A) (A) (A) (A) (A) (A) (A) (A)
                 (A) (A) (A) (A) (A) (A) (A) (A) (A) (A) (A) (A)
                 (A) (A) (A) (A) (A) (A) (A) (A) (A) (A) (A) (A)
                 (A) (A) (A) (A) (A) (A) (A) (A) (A) (A) (A) (A)
                 (A) (A) (A) (A) (A) (A) (A) (A) (A) (A) (A) (A)
                 (A) (A) (A) (A) (A) (A) (A) (A) (A) (A) (A) (A)
                 (A) (A) (A) (A) (A) (A) (A) (A) (A) (A) (A) (A)
                 (A) (A) (A) (A) (A) (A) (A) (A) (A) (A) (A) (A)
                 (A) (A) (A) (A) (A) (A)
       Virtual   (A) (A) (A) (A) (A) (A) (A) (A) (A) (A) (A) (A)
                 (A) (A) (A) (A) (A) (A) (A) (A) (A) (A) (A) (A)
                 (A) (A) (A) (A) (A) (A) (A) (A) (A) (A) (A) (A)
                 (A) (A) (A) (A) (A) (A) (A) (A) (A) (A) (A) (A)
                 (A) (A) (A) (A) (A) (A) (A) (A) (A) (A) (A) (A)
                 (A) (A) (A) (A) (A) (A) (A) (A) (A) (A) (A) (A)
                 (A) (A) (A) (A) (A) (A) (A) (A) (A) (A) (A) (A)
                 (A) (A) (A) (A) (A) (A) (A) (A) (A) (A) (A) (A)
                 (A) (A) (A) (A) (A) (A) (A) (A) (A) (A) (A) (A)
                 (A) (A) (A) (A) (A) (A) (A) (A) (A) (A) (A) (A)
                 (A) (A) (A) (A) (A) (A) (A) (A) (A) (A) (A) (A)
                 (A) (A) (A) (A) (A) (A) (A) (A) (A) (A) (A) (A)
                 (A) (A) (A) (A) (A) (A) (A) (A) (A) (A) (A) (A)
                 (A) (A) (A) (A) (A) (A) (A) (A) (A) (A) (A) (A)
                 (A) (A) (A) (A) (A) (A) (A) (A) (A) (A) (A) (A)
                 (A) (A) (A) (A) (A) (A) (A) (A) (A) (A) (A) (A)
                 (A) (A) (A) (A) (A) (A) (A) (A) (A) (A) (A) (A)
                 (A) (A) (A) (A) (A) (A) (A) (A) (A) (A) (A) (A)
                 (A) (A) (A) (A) (A) (A) (A) (A) (A) (A) (A) (A)
                 (A) (A) (A) (A) (A) (A) (A) (A) (A) (A) (A) (A)
                 (A) (A) (A) (A) (A) (A) (A) (A) (A) (A) (A) (A)
                 (A) (A) (A) (A) (A) (A) (A) (A) (A) (A) (A) (A)
                 (A) (A) (A) (A) (A) (A) (A) (A) (A) (A) (A) (A)
                 (A) (A) (A) (A) (A) (A) (A) (A) (A) (A) (A) (A)
                 (A) (A) (A) (A) (A) (A) (A) (A) (A) (A) (A) (A)
                 (A) (A) (A) (A) (A) (A) (A) (A) (A) (A) (A) (A)
                 (A) (A) (A) (A) (A) (A) (A) (A) (A) (A) (A) (A)
                 (A) (A) (A) (A) (A) (A) (A) (A) (A) (A) (A) (A)
                 (A) (A) (A) (A) (A) (A) (A) (A) (A) (A) (A) (A)
                 (A) (A) (A) (A) (A) (A) (A) (A) (A) (A) (A) (A)
                 (A) (A) (A) (A) (A) (A) (A) (A) (A) (A) (A) (A)
                 (A) (A) (A) (A) (A) (A) (A) (A) (A) (A) (A) (A)
                 (A) (A) (A) (A) (A) (A) (A) (A) (A) (A) (A) (A)
                 (A) (A) (A) (A) (A) (A) (A) (A) (A) (A) (A) (A)
                 (A) (A) (A) (A) (A) (A) (A) (A) (A) (A) (A) (A)
                 (A) (A) (A) (A) (A) (A) (A) (A) (A) (A) (A) (A)
                 (A) (A) (A) (A) (A) (A) (A) (A) (A) (A) (A) (A)
                 (A) (A) (A) (A) (A) (A) (A) (A) (A) (A) (A) (A)
                 (A) (A) (A) (A) (A) (A) (A) (A) (A) (A) (A) (A)
                 (A) (A) (A) (A) (A) (A) (A) (A) (A) (A) (A) (A)
                 (A) (A) (A) (A) (A) (A) (A) (A) (A) (A) (A) (A)
                 (A) (A) (A) (A) (A) (A) (A) (A) (A) (A) (A) (A)
                 (A)
 Beta  Orbitals:
       Occupied  (A) (A) (A) (A) (A) (A) (A) (A) (A) (A) (A) (A)
                 (A) (A) (A) (A) (A) (A) (A) (A) (A) (A) (A) (A)
                 (A) (A) (A) (A) (A) (A) (A) (A) (A) (A) (A) (A)
                 (A) (A) (A) (A) (A) (A) (A) (A) (A) (A) (A) (A)
                 (A) (A) (A) (A) (A) (A) (A) (A) (A) (A) (A) (A)
                 (A) (A) (A) (A) (A) (A) (A) (A) (A) (A) (A) (A)
                 (A) (A) (A) (A) (A) (A) (A) (A) (A) (A) (A) (A)
                 (A) (A) (A) (A) (A) (A) (A) (A) (A) (A) (A) (A)
                 (A) (A) (A) (A) (A)
       Virtual   (A) (A) (A) (A) (A) (A) (A) (A) (A) (A) (A) (A)
                 (A) (A) (A) (A) (A) (A) (A) (A) (A) (A) (A) (A)
                 (A) (A) (A) (A) (A) (A) (A) (A) (A) (A) (A) (A)
                 (A) (A) (A) (A) (A) (A) (A) (A) (A) (A) (A) (A)
                 (A) (A) (A) (A) (A) (A) (A) (A) (A) (A) (A) (A)
                 (A) (A) (A) (A) (A) (A) (A) (A) (A) (A) (A) (A)
                 (A) (A) (A) (A) (A) (A) (A) (A) (A) (A) (A) (A)
                 (A) (A) (A) (A) (A) (A) (A) (A) (A) (A) (A) (A)
                 (A) (A) (A) (A) (A) (A) (A) (A) (A) (A) (A) (A)
                 (A) (A) (A) (A) (A) (A) (A) (A) (A) (A) (A) (A)
                 (A) (A) (A) (A) (A) (A) (A) (A) (A) (A) (A) (A)
                 (A) (A) (A) (A) (A) (A) (A) (A) (A) (A) (A) (A)
                 (A) (A) (A) (A) (A) (A) (A) (A) (A) (A) (A) (A)
                 (A) (A) (A) (A) (A) (A) (A) (A) (A) (A) (A) (A)
                 (A) (A) (A) (A) (A) (A) (A) (A) (A) (A) (A) (A)
                 (A) (A) (A) (A) (A) (A) (A) (A) (A) (A) (A) (A)
                 (A) (A) (A) (A) (A) (A) (A) (A) (A) (A) (A) (A)
                 (A) (A) (A) (A) (A) (A) (A) (A) (A) (A) (A) (A)
                 (A) (A) (A) (A) (A) (A) (A) (A) (A) (A) (A) (A)
                 (A) (A) (A) (A) (A) (A) (A) (A) (A) (A) (A) (A)
                 (A) (A) (A) (A) (A) (A) (A) (A) (A) (A) (A) (A)
                 (A) (A) (A) (A) (A) (A) (A) (A) (A) (A) (A) (A)
                 (A) (A) (A) (A) (A) (A) (A) (A) (A) (A) (A) (A)
                 (A) (A) (A) (A) (A) (A) (A) (A) (A) (A) (A) (A)
                 (A) (A) (A) (A) (A) (A) (A) (A) (A) (A) (A) (A)
                 (A) (A) (A) (A) (A) (A) (A) (A) (A) (A) (A) (A)
                 (A) (A) (A) (A) (A) (A) (A) (A) (A) (A) (A) (A)
                 (A) (A) (A) (A) (A) (A) (A) (A) (A) (A) (A) (A)
                 (A) (A) (A) (A) (A) (A) (A) (A) (A) (A) (A) (A)
                 (A) (A) (A) (A) (A) (A) (A) (A) (A) (A) (A) (A)
                 (A) (A) (A) (A) (A) (A) (A) (A) (A) (A) (A) (A)
                 (A) (A) (A) (A) (A) (A) (A) (A) (A) (A) (A) (A)
                 (A) (A) (A) (A) (A) (A) (A) (A) (A) (A) (A) (A)
                 (A) (A) (A) (A) (A) (A) (A) (A) (A) (A) (A) (A)
                 (A) (A) (A) (A) (A) (A) (A) (A) (A) (A) (A) (A)
                 (A) (A) (A) (A) (A) (A) (A) (A) (A) (A) (A) (A)
                 (A) (A) (A) (A) (A) (A) (A) (A) (A) (A) (A) (A)
                 (A) (A) (A) (A) (A) (A) (A) (A) (A) (A) (A) (A)
                 (A) (A) (A) (A) (A) (A) (A) (A) (A) (A) (A) (A)
                 (A) (A) (A) (A) (A) (A) (A) (A) (A) (A) (A) (A)
                 (A) (A) (A) (A) (A) (A) (A) (A) (A) (A) (A) (A)
                 (A) (A) (A) (A) (A) (A) (A) (A) (A) (A) (A) (A)
                 (A) (A)
 The electronic state is 2-A.
 Alpha  occ. eigenvalues --  -19.75999 -19.75966 -19.75684 -19.75637 -19.75372
 Alpha  occ. eigenvalues --  -19.75369 -15.08730 -15.08634 -15.08425 -14.93175
 Alpha  occ. eigenvalues --  -14.86798 -10.69530 -10.68015 -10.67736 -10.67055
 Alpha  occ. eigenvalues --  -10.65026 -10.64993 -10.64482 -10.64159 -10.60163
 Alpha  occ. eigenvalues --  -10.60145 -10.59801 -10.59580 -10.59569 -10.59517
 Alpha  occ. eigenvalues --  -10.59464 -10.59212 -10.59164 -10.59090  -1.41225
 Alpha  occ. eigenvalues --   -1.40988  -1.40765  -1.22296  -1.22053  -1.21702
 Alpha  occ. eigenvalues --   -1.20887  -1.06978  -1.01762  -0.99591  -0.97798
 Alpha  occ. eigenvalues --   -0.97513  -0.94030  -0.88850  -0.87388  -0.86811
 Alpha  occ. eigenvalues --   -0.85780  -0.85184  -0.83738  -0.79909  -0.74631
 Alpha  occ. eigenvalues --   -0.73102  -0.72560  -0.71308  -0.70839  -0.70081
 Alpha  occ. eigenvalues --   -0.68720  -0.67650  -0.66530  -0.66131  -0.65616
 Alpha  occ. eigenvalues --   -0.65005  -0.64740  -0.64432  -0.63993  -0.63049
 Alpha  occ. eigenvalues --   -0.62582  -0.60144  -0.59207  -0.57822  -0.56586
 Alpha  occ. eigenvalues --   -0.55319  -0.53730  -0.53265  -0.52561  -0.51833
 Alpha  occ. eigenvalues --   -0.51048  -0.50808  -0.50437  -0.49613  -0.46494
 Alpha  occ. eigenvalues --   -0.45394  -0.44720  -0.43980  -0.43749  -0.43274
 Alpha  occ. eigenvalues --   -0.42933  -0.42501  -0.42035  -0.41819  -0.41730
 Alpha  occ. eigenvalues --   -0.41633  -0.41507  -0.41156  -0.41082  -0.40813
 Alpha  occ. eigenvalues --   -0.37026  -0.36329  -0.33507  -0.32868  -0.32257
 Alpha  occ. eigenvalues --   -0.31855  -0.25241
 Alpha virt. eigenvalues --   -0.07633  -0.07335  -0.05689  -0.00076   0.00443
 Alpha virt. eigenvalues --    0.00934   0.02344   0.02573   0.03971   0.04113
 Alpha virt. eigenvalues --    0.05430   0.06092   0.06605   0.07204   0.07272
 Alpha virt. eigenvalues --    0.07875   0.08293   0.08389   0.08992   0.09245
 Alpha virt. eigenvalues --    0.09498   0.09973   0.10204   0.10982   0.11492
 Alpha virt. eigenvalues --    0.12028   0.12186   0.13398   0.13459   0.13818
 Alpha virt. eigenvalues --    0.14065   0.14483   0.14717   0.15028   0.15243
 Alpha virt. eigenvalues --    0.15533   0.15888   0.16099   0.16139   0.16831
 Alpha virt. eigenvalues --    0.17240   0.17373   0.17836   0.18220   0.18318
 Alpha virt. eigenvalues --    0.18782   0.19039   0.19176   0.19527   0.19701
 Alpha virt. eigenvalues --    0.19899   0.20045   0.20491   0.20576   0.21130
 Alpha virt. eigenvalues --    0.21226   0.21565   0.21887   0.22318   0.22633
 Alpha virt. eigenvalues --    0.22865   0.23105   0.23355   0.23644   0.23922
 Alpha virt. eigenvalues --    0.24190   0.24611   0.25100   0.25177   0.25476
 Alpha virt. eigenvalues --    0.25664   0.25865   0.26184   0.26439   0.26756
 Alpha virt. eigenvalues --    0.26911   0.27297   0.27516   0.27739   0.27821
 Alpha virt. eigenvalues --    0.28185   0.28238   0.28595   0.28826   0.28961
 Alpha virt. eigenvalues --    0.29352   0.29651   0.29889   0.30024   0.30264
 Alpha virt. eigenvalues --    0.30598   0.30890   0.31085   0.31289   0.31628
 Alpha virt. eigenvalues --    0.31820   0.32142   0.32432   0.33214   0.33415
 Alpha virt. eigenvalues --    0.33570   0.33721   0.34323   0.34481   0.34833
 Alpha virt. eigenvalues --    0.35503   0.35702   0.35941   0.36273   0.36385
 Alpha virt. eigenvalues --    0.36498   0.36677   0.37158   0.37808   0.38059
 Alpha virt. eigenvalues --    0.38256   0.38503   0.38792   0.38958   0.39011
 Alpha virt. eigenvalues --    0.39472   0.39798   0.40338   0.40801   0.40869
 Alpha virt. eigenvalues --    0.41147   0.41262   0.41828   0.41987   0.42359
 Alpha virt. eigenvalues --    0.42841   0.43380   0.44006   0.44261   0.44560
 Alpha virt. eigenvalues --    0.44942   0.45357   0.45743   0.45770   0.46226
 Alpha virt. eigenvalues --    0.46899   0.47200   0.47540   0.48121   0.48551
 Alpha virt. eigenvalues --    0.49216   0.49338   0.50283   0.51455   0.51839
 Alpha virt. eigenvalues --    0.51899   0.52542   0.52996   0.54183   0.55035
 Alpha virt. eigenvalues --    0.55447   0.56905   0.57085   0.58366   0.59362
 Alpha virt. eigenvalues --    0.60585   0.61800   0.65015   0.65863   0.67209
 Alpha virt. eigenvalues --    0.69088   0.69771   0.73175   0.73605   0.75026
 Alpha virt. eigenvalues --    0.75336   0.75715   0.76559   0.77284   0.77408
 Alpha virt. eigenvalues --    0.77708   0.79382   0.79608   0.80449   0.80956
 Alpha virt. eigenvalues --    0.81290   0.81591   0.82180   0.82597   0.83553
 Alpha virt. eigenvalues --    0.84431   0.85268   0.85426   0.86081   0.86522
 Alpha virt. eigenvalues --    0.87137   0.89024   0.89490   0.90209   0.90397
 Alpha virt. eigenvalues --    0.91031   0.91482   0.92581   0.93622   0.94363
 Alpha virt. eigenvalues --    0.95068   0.95915   0.96045   0.97520   0.97994
 Alpha virt. eigenvalues --    0.98103   0.99657   1.00158   1.00821   1.01088
 Alpha virt. eigenvalues --    1.01634   1.02402   1.02929   1.03559   1.04222
 Alpha virt. eigenvalues --    1.05325   1.05525   1.06095   1.06638   1.06806
 Alpha virt. eigenvalues --    1.08440   1.09028   1.09935   1.10600   1.10777
 Alpha virt. eigenvalues --    1.11909   1.12223   1.13574   1.14549   1.15082
 Alpha virt. eigenvalues --    1.15536   1.16305   1.16353   1.18150   1.18686
 Alpha virt. eigenvalues --    1.19171   1.19653   1.21953   1.22259   1.22950
 Alpha virt. eigenvalues --    1.23301   1.24402   1.24961   1.25684   1.26014
 Alpha virt. eigenvalues --    1.26757   1.27108   1.27507   1.28077   1.29067
 Alpha virt. eigenvalues --    1.29434   1.30458   1.31106   1.31781   1.32489
 Alpha virt. eigenvalues --    1.32916   1.34043   1.34644   1.34971   1.36120
 Alpha virt. eigenvalues --    1.36351   1.37492   1.38139   1.38226   1.38610
 Alpha virt. eigenvalues --    1.39098   1.39192   1.39539   1.39701   1.41293
 Alpha virt. eigenvalues --    1.42001   1.42726   1.43525   1.43822   1.44182
 Alpha virt. eigenvalues --    1.44476   1.45232   1.45518   1.46395   1.46845
 Alpha virt. eigenvalues --    1.47570   1.47820   1.48219   1.48798   1.48984
 Alpha virt. eigenvalues --    1.49708   1.50000   1.50400   1.50719   1.51308
 Alpha virt. eigenvalues --    1.52522   1.53083   1.53993   1.54583   1.55118
 Alpha virt. eigenvalues --    1.55860   1.56995   1.57666   1.60229   1.63239
 Alpha virt. eigenvalues --    1.64396   1.65456   1.66890   1.70729   1.72011
 Alpha virt. eigenvalues --    1.74215   1.74588   1.76187   1.77751   1.79042
 Alpha virt. eigenvalues --    1.79701   1.81032   1.81562   1.82033   1.82687
 Alpha virt. eigenvalues --    1.84259   1.84743   1.85119   1.85766   1.87809
 Alpha virt. eigenvalues --    1.88202   1.89677   1.90745   1.91062   1.91813
 Alpha virt. eigenvalues --    1.92882   1.93495   1.93912   1.94685   1.94843
 Alpha virt. eigenvalues --    1.95892   1.96301   1.96948   1.97551   1.98095
 Alpha virt. eigenvalues --    1.98412   1.99342   2.00182   2.00883   2.02142
 Alpha virt. eigenvalues --    2.02228   2.03070   2.03667   2.04622   2.05124
 Alpha virt. eigenvalues --    2.05863   2.06166   2.07105   2.07626   2.08622
 Alpha virt. eigenvalues --    2.09231   2.09402   2.09862   2.10143   2.10794
 Alpha virt. eigenvalues --    2.11644   2.12044   2.13241   2.14072   2.15216
 Alpha virt. eigenvalues --    2.16049   2.16806   2.17929   2.18541   2.19521
 Alpha virt. eigenvalues --    2.20069   2.21458   2.21862   2.22468   2.23693
 Alpha virt. eigenvalues --    2.25152   2.26392   2.27536   2.29635   2.32651
 Alpha virt. eigenvalues --    2.33851   2.34752   2.35172   2.35631   2.36925
 Alpha virt. eigenvalues --    2.40301   2.41013   2.41499   2.44104   2.44517
 Alpha virt. eigenvalues --    2.45030   2.45284   2.45596   2.45959   2.47269
 Alpha virt. eigenvalues --    2.47751   2.48220   2.48901   2.49263   2.50254
 Alpha virt. eigenvalues --    2.52103   2.52454   2.53347   2.53582   2.54208
 Alpha virt. eigenvalues --    2.55522   2.56675   2.57963   2.58514   2.60399
 Alpha virt. eigenvalues --    2.60613   2.61635   2.62290   2.62656   2.62979
 Alpha virt. eigenvalues --    2.64116   2.65131   2.65939   2.66165   2.66492
 Alpha virt. eigenvalues --    2.67406   2.68176   2.68632   2.69730   2.69923
 Alpha virt. eigenvalues --    2.71401   2.72532   2.73279   2.73664   2.75213
 Alpha virt. eigenvalues --    2.76620   2.77581   2.78919   2.79936   2.80704
 Alpha virt. eigenvalues --    2.81421   2.82358   2.83650   2.85306   2.87361
 Alpha virt. eigenvalues --    2.88456   2.89055   2.90580   2.91544   2.96375
 Alpha virt. eigenvalues --    2.98684   2.99247   3.04695   3.06043   3.07451
 Alpha virt. eigenvalues --    3.08605   3.09779   3.10894   3.11444   3.11573
 Alpha virt. eigenvalues --    3.13284   3.13852   3.14133   3.16561   3.18384
 Alpha virt. eigenvalues --    3.20559   3.23051   3.23871   3.25619   3.26886
 Alpha virt. eigenvalues --    3.29912   3.33133   3.33875   3.35532   3.35616
 Alpha virt. eigenvalues --    3.38808   3.42708   3.44383   3.50335   3.51229
 Alpha virt. eigenvalues --    3.52586   3.62095   3.63510   3.74275   3.97088
 Alpha virt. eigenvalues --    3.99199   4.17318   4.24022   4.31788   4.35886
 Alpha virt. eigenvalues --    4.37335   4.37923   4.39708   4.41683   4.43123
 Alpha virt. eigenvalues --    4.44573   4.47776   4.50493   4.51788   4.52346
 Alpha virt. eigenvalues --    4.54057   4.56430   4.60679   4.62056   4.62721
 Alpha virt. eigenvalues --    4.65273   4.69304   4.72987   4.75560   4.79112
 Alpha virt. eigenvalues --    4.85246   4.89147   4.90644   4.95567   4.95975
  Beta  occ. eigenvalues --  -19.75982 -19.75937 -19.75713 -19.75557 -19.75348
  Beta  occ. eigenvalues --  -19.75342 -15.08744 -15.08638 -15.08436 -14.92422
  Beta  occ. eigenvalues --  -14.86169 -10.69549 -10.67911 -10.67657 -10.66980
  Beta  occ. eigenvalues --  -10.65057 -10.65031 -10.64549 -10.64267 -10.60105
  Beta  occ. eigenvalues --  -10.60084 -10.59705 -10.59577 -10.59542 -10.59475
  Beta  occ. eigenvalues --  -10.59445 -10.59243 -10.59209 -10.59020  -1.41200
  Beta  occ. eigenvalues --   -1.40946  -1.40735  -1.22162  -1.21888  -1.21652
  Beta  occ. eigenvalues --   -1.19489  -1.06616  -1.01125  -0.99465  -0.97613
  Beta  occ. eigenvalues --   -0.97280  -0.93358  -0.88656  -0.87273  -0.86687
  Beta  occ. eigenvalues --   -0.85675  -0.84928  -0.83723  -0.79291  -0.74261
  Beta  occ. eigenvalues --   -0.72779  -0.72274  -0.71200  -0.70707  -0.69929
  Beta  occ. eigenvalues --   -0.68494  -0.67495  -0.66413  -0.66004  -0.65274
  Beta  occ. eigenvalues --   -0.64904  -0.64576  -0.64364  -0.63710  -0.62953
  Beta  occ. eigenvalues --   -0.62544  -0.59364  -0.58920  -0.57396  -0.55632
  Beta  occ. eigenvalues --   -0.54955  -0.53587  -0.53038  -0.52415  -0.51387
  Beta  occ. eigenvalues --   -0.50883  -0.50731  -0.50240  -0.48440  -0.46236
  Beta  occ. eigenvalues --   -0.44673  -0.44280  -0.43773  -0.43595  -0.42990
  Beta  occ. eigenvalues --   -0.42717  -0.42392  -0.41753  -0.41675  -0.41495
  Beta  occ. eigenvalues --   -0.41435  -0.41324  -0.41016  -0.40849  -0.40067
  Beta  occ. eigenvalues --   -0.36552  -0.34299  -0.33124  -0.32380  -0.31950
  Beta  occ. eigenvalues --   -0.30329
  Beta virt. eigenvalues --   -0.10455  -0.07478  -0.05861  -0.05123   0.00235
  Beta virt. eigenvalues --    0.00659   0.01067   0.02653   0.03060   0.04003
  Beta virt. eigenvalues --    0.05367   0.05640   0.06168   0.06626   0.07266
  Beta virt. eigenvalues --    0.07301   0.07955   0.08327   0.08422   0.09031
  Beta virt. eigenvalues --    0.09275   0.09530   0.10047   0.10237   0.11021
  Beta virt. eigenvalues --    0.11541   0.12066   0.12239   0.13434   0.13482
  Beta virt. eigenvalues --    0.13882   0.14117   0.14528   0.14773   0.15094
  Beta virt. eigenvalues --    0.15328   0.15560   0.15895   0.16157   0.16247
  Beta virt. eigenvalues --    0.16905   0.17270   0.17422   0.18075   0.18293
  Beta virt. eigenvalues --    0.18358   0.18916   0.19113   0.19259   0.19593
  Beta virt. eigenvalues --    0.19750   0.19991   0.20139   0.20497   0.20649
  Beta virt. eigenvalues --    0.21267   0.21346   0.21630   0.21948   0.22411
  Beta virt. eigenvalues --    0.22687   0.22911   0.23135   0.23426   0.23710
  Beta virt. eigenvalues --    0.23965   0.24243   0.24680   0.25153   0.25364
  Beta virt. eigenvalues --    0.25536   0.25763   0.25961   0.26258   0.26505
  Beta virt. eigenvalues --    0.26846   0.27013   0.27359   0.27595   0.27839
  Beta virt. eigenvalues --    0.27887   0.28279   0.28360   0.28719   0.28914
  Beta virt. eigenvalues --    0.29027   0.29450   0.29711   0.29995   0.30057
  Beta virt. eigenvalues --    0.30364   0.30676   0.30941   0.31234   0.31344
  Beta virt. eigenvalues --    0.31665   0.31924   0.32206   0.32495   0.33260
  Beta virt. eigenvalues --    0.33504   0.33622   0.33823   0.34370   0.34544
  Beta virt. eigenvalues --    0.34926   0.35568   0.35781   0.36041   0.36326
  Beta virt. eigenvalues --    0.36472   0.36574   0.36718   0.37244   0.37904
  Beta virt. eigenvalues --    0.38097   0.38300   0.38553   0.38830   0.38997
  Beta virt. eigenvalues --    0.39148   0.39522   0.39877   0.40458   0.40886
  Beta virt. eigenvalues --    0.40920   0.41254   0.41324   0.41909   0.42050
  Beta virt. eigenvalues --    0.42437   0.42913   0.43491   0.44059   0.44420
  Beta virt. eigenvalues --    0.44669   0.45020   0.45494   0.45847   0.45993
  Beta virt. eigenvalues --    0.46290   0.46987   0.47311   0.47650   0.48186
  Beta virt. eigenvalues --    0.48656   0.49261   0.49424   0.50351   0.51566
  Beta virt. eigenvalues --    0.51953   0.52164   0.52629   0.53108   0.54278
  Beta virt. eigenvalues --    0.55125   0.55570   0.57005   0.57189   0.58388
  Beta virt. eigenvalues --    0.59381   0.60620   0.61957   0.65147   0.65996
  Beta virt. eigenvalues --    0.67328   0.69173   0.69855   0.73270   0.73719
  Beta virt. eigenvalues --    0.75101   0.75437   0.75774   0.76616   0.77429
  Beta virt. eigenvalues --    0.77509   0.77782   0.79391   0.79624   0.80437
  Beta virt. eigenvalues --    0.81002   0.81350   0.81743   0.82493   0.82814
  Beta virt. eigenvalues --    0.83617   0.84611   0.85407   0.85712   0.86168
  Beta virt. eigenvalues --    0.86686   0.87278   0.89213   0.89522   0.90282
  Beta virt. eigenvalues --    0.90637   0.91252   0.91627   0.92659   0.93890
  Beta virt. eigenvalues --    0.94605   0.95278   0.96051   0.96223   0.97603
  Beta virt. eigenvalues --    0.98100   0.98201   0.99791   1.00244   1.01054
  Beta virt. eigenvalues --    1.01259   1.01762   1.02384   1.02947   1.03695
  Beta virt. eigenvalues --    1.04346   1.05387   1.05660   1.06186   1.06812
  Beta virt. eigenvalues --    1.06954   1.08704   1.09151   1.09992   1.10715
  Beta virt. eigenvalues --    1.11050   1.12009   1.12339   1.13784   1.15002
  Beta virt. eigenvalues --    1.15609   1.15818   1.16409   1.16660   1.18273
  Beta virt. eigenvalues --    1.18812   1.19606   1.19952   1.22145   1.22544
  Beta virt. eigenvalues --    1.23126   1.23453   1.24584   1.25173   1.25899
  Beta virt. eigenvalues --    1.26200   1.26974   1.27278   1.27709   1.28218
  Beta virt. eigenvalues --    1.29214   1.29682   1.30580   1.31269   1.31888
  Beta virt. eigenvalues --    1.32628   1.33033   1.34319   1.34754   1.35103
  Beta virt. eigenvalues --    1.36248   1.36470   1.37683   1.38242   1.38340
  Beta virt. eigenvalues --    1.38803   1.39313   1.39418   1.39699   1.39902
  Beta virt. eigenvalues --    1.41390   1.42154   1.42818   1.43613   1.43933
  Beta virt. eigenvalues --    1.44262   1.44598   1.45364   1.45733   1.46488
  Beta virt. eigenvalues --    1.47042   1.47703   1.47987   1.48385   1.48941
  Beta virt. eigenvalues --    1.49118   1.49811   1.50069   1.50511   1.50887
  Beta virt. eigenvalues --    1.51473   1.52669   1.53212   1.54133   1.54742
  Beta virt. eigenvalues --    1.55252   1.55957   1.57260   1.57811   1.60380
  Beta virt. eigenvalues --    1.63535   1.64617   1.65634   1.67076   1.70901
  Beta virt. eigenvalues --    1.72261   1.74374   1.74862   1.76548   1.77832
  Beta virt. eigenvalues --    1.79249   1.80000   1.81263   1.81686   1.82258
  Beta virt. eigenvalues --    1.82866   1.84357   1.85098   1.85292   1.86130
  Beta virt. eigenvalues --    1.88006   1.88390   1.89824   1.90946   1.91171
  Beta virt. eigenvalues --    1.91978   1.93035   1.93676   1.94077   1.94778
  Beta virt. eigenvalues --    1.94962   1.96031   1.96490   1.97089   1.97649
  Beta virt. eigenvalues --    1.98223   1.98523   1.99522   2.00279   2.01003
  Beta virt. eigenvalues --    2.02396   2.02428   2.03130   2.03727   2.04693
  Beta virt. eigenvalues --    2.05298   2.05974   2.06219   2.07203   2.07773
  Beta virt. eigenvalues --    2.08704   2.09336   2.09590   2.10092   2.10245
  Beta virt. eigenvalues --    2.10912   2.11796   2.12135   2.13410   2.14218
  Beta virt. eigenvalues --    2.15322   2.16204   2.16991   2.18047   2.18687
  Beta virt. eigenvalues --    2.19726   2.20220   2.21622   2.22041   2.22596
  Beta virt. eigenvalues --    2.23857   2.25217   2.26506   2.27666   2.29845
  Beta virt. eigenvalues --    2.32819   2.34025   2.34813   2.35324   2.35760
  Beta virt. eigenvalues --    2.37094   2.40593   2.41354   2.41839   2.44236
  Beta virt. eigenvalues --    2.44594   2.45123   2.45324   2.45651   2.45984
  Beta virt. eigenvalues --    2.47315   2.47899   2.48310   2.49013   2.49435
  Beta virt. eigenvalues --    2.50346   2.52445   2.52872   2.53394   2.53691
  Beta virt. eigenvalues --    2.54261   2.55678   2.56789   2.58069   2.58758
  Beta virt. eigenvalues --    2.60529   2.60755   2.61769   2.62454   2.62910
  Beta virt. eigenvalues --    2.63103   2.64225   2.65247   2.66000   2.66250
  Beta virt. eigenvalues --    2.66631   2.67527   2.68284   2.68890   2.69854
  Beta virt. eigenvalues --    2.70046   2.71661   2.72625   2.73349   2.73823
  Beta virt. eigenvalues --    2.75336   2.76722   2.77642   2.79018   2.80044
  Beta virt. eigenvalues --    2.80809   2.81595   2.82456   2.83785   2.85411
  Beta virt. eigenvalues --    2.87435   2.88578   2.89107   2.90674   2.91612
  Beta virt. eigenvalues --    2.96536   2.98766   2.99577   3.04758   3.06096
  Beta virt. eigenvalues --    3.07786   3.08648   3.09891   3.10971   3.11529
  Beta virt. eigenvalues --    3.11652   3.13404   3.13894   3.14252   3.16628
  Beta virt. eigenvalues --    3.18622   3.20703   3.23097   3.23924   3.25716
  Beta virt. eigenvalues --    3.26984   3.30023   3.33280   3.33972   3.35578
  Beta virt. eigenvalues --    3.35668   3.38870   3.42881   3.44527   3.50214
  Beta virt. eigenvalues --    3.51596   3.52919   3.62241   3.63688   3.74212
  Beta virt. eigenvalues --    3.97265   3.99345   4.17368   4.24147   4.31844
  Beta virt. eigenvalues --    4.35974   4.37377   4.38004   4.39673   4.41751
  Beta virt. eigenvalues --    4.43248   4.44949   4.47867   4.50722   4.51997
  Beta virt. eigenvalues --    4.52472   4.54171   4.56520   4.60864   4.62207
  Beta virt. eigenvalues --    4.62875   4.65231   4.69391   4.73081   4.75803
  Beta virt. eigenvalues --    4.79513   4.85320   4.89221   4.90644   4.95662
  Beta virt. eigenvalues --    4.95939
          Condensed to atoms (all electrons):
               1          2          3          4          5          6
     1  N   12.743443  -5.149282  -1.101233   0.949004  -0.130822  -0.045021
     2  N   -5.149282  13.653405   0.178353  -1.938966   1.856319   0.436363
     3  C   -1.101233   0.178353  22.971840  -6.523801  -5.736788   1.063945
     4  C    0.949004  -1.938966  -6.523801  28.636859 -14.913671  -4.357773
     5  C   -0.130822   1.856319  -5.736788 -14.913671  32.834879  -0.497041
     6  C   -0.045021   0.436363   1.063945  -4.357773  -0.497041  10.535295
     7  H   -0.015543   0.004847   0.151578   0.152711   0.021409   0.029931
     8  C    0.286594  -0.449000  -0.768897   0.783431  -6.769436   0.243536
     9  H   -0.032066   0.037435   0.114967   0.021868   0.304266  -0.003194
    10  C    0.154956  -0.127162  -1.476202   0.423885   0.146082   0.174521
    11  H    0.000919   0.001087   0.019704  -0.035839  -0.002776   0.342674
    12  H   -0.000813  -0.000231   0.022754   0.002557  -0.075202   0.000216
    13  H    0.000157  -0.000237   0.000011   0.013916  -0.022881   0.006030
    14  C    0.150021  -0.055357  -0.925861  -1.195036   2.493335  -0.016800
    15  C   -0.601692   0.888525   0.141853   0.003629  -0.092147   0.023948
    16  C    0.075078  -0.396583   0.093450   0.370136  -0.506374  -0.013411
    17  C    0.363407  -0.612395   0.230305   0.233499  -0.298750   0.010367
    18  C   -0.234123   0.080480   0.286885   0.306854  -0.633913  -0.008913
    19  C    0.151290  -0.141746  -0.017402  -0.013268   0.082495   0.002611
    20  H    0.001233  -0.000851  -0.001441  -0.000385   0.001308  -0.000000
    21  H    0.000694   0.000345  -0.000533  -0.000092   0.000516  -0.000002
    22  C   -1.612980  -3.176969  -0.952917   3.075259  -3.796812  -2.386011
    23  C    0.691494  -0.162150  -0.370046   0.341458  -0.242304   0.486032
    24  C    0.586729   1.330248   0.841345  -1.051063   0.902529   0.632700
    25  C    0.066658   0.013131  -0.875556  -0.113806   0.500120  -0.229649
    26  H    0.058237   0.003338  -0.034600   0.085993  -0.011442  -0.004530
    27  C   -0.775208   0.586200  -0.601062   0.622642  -0.369302  -0.091119
    28  H   -0.014617   0.051270   0.015413  -0.021597   0.021580   0.003721
    29  C    0.132717   0.008415   0.090705  -0.058144   0.038292   0.066516
    30  H    0.000671   0.000915   0.003598  -0.003814   0.001117  -0.000231
    31  H   -0.001017  -0.000062  -0.003691   0.002313  -0.000466   0.000055
    32  H   -0.001079  -0.000323  -0.000475  -0.000808  -0.000081  -0.000109
    33  N    0.000494   0.003822  -0.001385  -0.000762   0.001410  -0.000001
    34  O   -0.000016  -0.000355   0.000027  -0.000004   0.000035   0.000002
    35  O    0.000844  -0.000310  -0.000015  -0.000004   0.000159   0.000001
    36  N   -0.156698   0.304235  -0.230032  -0.243413   0.389121  -0.014822
    37  O    0.038196   0.054307   0.090184   0.045020  -0.046814   0.063397
    38  O    0.008858  -0.028677  -0.018052   0.012320  -0.009563  -0.006293
    39  O    0.018160  -0.012429   0.009825   0.003996  -0.010859  -0.000589
    40  O   -0.023073   0.008441   0.068704   0.017618  -0.053475   0.003919
    41  N    0.006549  -0.157047  -0.071207  -0.097504   0.137358  -0.000254
               7          8          9         10         11         12
     1  N   -0.015543   0.286594  -0.032066   0.154956   0.000919  -0.000813
     2  N    0.004847  -0.449000   0.037435  -0.127162   0.001087  -0.000231
     3  C    0.151578  -0.768897   0.114967  -1.476202   0.019704   0.022754
     4  C    0.152711   0.783431   0.021868   0.423885  -0.035839   0.002557
     5  C    0.021409  -6.769436   0.304266   0.146082  -0.002776  -0.075202
     6  C    0.029931   0.243536  -0.003194   0.174521   0.342674   0.000216
     7  H    0.492023  -0.002374  -0.000103  -0.010842  -0.004588   0.000012
     8  C   -0.002374  12.323980  -0.104853   0.713983   0.001058   0.368832
     9  H   -0.000103  -0.104853   0.497335  -0.016831   0.000012  -0.004764
    10  C   -0.010842   0.713983  -0.016831   5.832147   0.002213   0.007713
    11  H   -0.004588   0.001058   0.000012   0.002213   0.485687  -0.000124
    12  H    0.000012   0.368832  -0.004764   0.007713  -0.000124   0.486324
    13  H   -0.000118   0.006912  -0.000113   0.322464  -0.004309  -0.004324
    14  C   -0.001870  -0.954171  -0.014607   0.066654  -0.000114  -0.001547
    15  C    0.000971  -0.054098   0.005218  -0.011000  -0.000044  -0.000130
    16  C   -0.001532   0.030692   0.003598  -0.007734   0.000027   0.000032
    17  C    0.000160  -0.120569  -0.002665   0.007984  -0.000004  -0.000022
    18  C   -0.000492   0.003481   0.004974  -0.005330   0.000002  -0.000000
    19  C    0.000063  -0.019587  -0.000493   0.002769  -0.000000  -0.000002
    20  H   -0.000000   0.000084   0.000000  -0.000001   0.000000   0.000000
    21  H    0.000000   0.000037   0.000000   0.000000   0.000000   0.000000
    22  C   -0.089073   0.950186  -0.018239  -0.157589  -0.002058   0.003088
    23  C    0.044878   0.085959   0.001396  -0.005036   0.000058  -0.000459
    24  C    0.053896  -0.184621   0.000636   0.031126   0.000235   0.000008
    25  C   -0.032767   0.023677   0.000226  -0.004390  -0.000294  -0.000081
    26  H   -0.000474  -0.010199   0.000030   0.005655  -0.000002  -0.000000
    27  C   -0.001139   0.037824   0.000399  -0.013736   0.000057   0.000004
    28  H    0.000030   0.002504   0.000001  -0.000198  -0.000000  -0.000000
    29  C    0.007130  -0.014815  -0.000117   0.005128  -0.000137   0.000003
    30  H   -0.000011  -0.000103  -0.000000  -0.000073   0.000000  -0.000000
    31  H   -0.000002   0.000007  -0.000000   0.000005  -0.000000  -0.000000
    32  H    0.000000   0.000003   0.000000  -0.000007   0.000000   0.000000
    33  N   -0.000000   0.000312   0.000002  -0.000013   0.000000   0.000000
    34  O   -0.000000   0.000000   0.000000  -0.000000   0.000000  -0.000000
    35  O    0.000000   0.000014  -0.000000   0.000000  -0.000000   0.000000
    36  N   -0.000191   0.059967   0.006213   0.008808   0.000017   0.000003
    37  O    0.000055   0.003072   0.001897  -0.006196   0.000004  -0.000056
    38  O   -0.000023   0.005045   0.000194   0.000098  -0.000000  -0.000000
    39  O    0.000000   0.000686   0.000024   0.000119   0.000000  -0.000000
    40  O   -0.000011  -0.007883  -0.000045  -0.000671   0.000000   0.000001
    41  N    0.000057   0.006007  -0.000912   0.000027  -0.000001   0.000005
              13         14         15         16         17         18
[...]
 0001258,0.00002014,-0.00097765,-0.00086173,-0.00014638,0.00050822,0.00
 002501,0.00019845,0.00030188,0.00041187,-0.00017133,-0.15452383,-0.194
 75127,-0.06906582,0.24013693,0.25774465,-0.00041224,0.00488490,-0.0078
 3122,0.00502277,0.00163926,-0.00245156,-0.00065162,-0.00011092,-0.0004
 6619,0.00021949,0.00007109,0.00016041,-0.00025049,-0.00038977,-0.00007
 632,-0.00004047,-0.00004220,-0.00001141,-0.00003608,-0.00000234,0.0000
 1397,0.00028955,-0.00004480,0.00003211,-0.00006204,0.00002093,-0.00001
 721,-0.00000413,0.00011452,0.00010802,0.00002994,0.00000776,-0.0000024
 6,0.00002967,0.00003281,0.00000742,0.00001009,0.00001264,-0.00000088,-
 0.00168284,-0.00349602,0.00028010,-0.04238210,-0.00995445,-0.00170869,
 0.00079550,-0.00062640,-0.00008310,0.00164455,0.00615239,-0.00244036,-
 0.00165341,-0.00062827,0.00061559,-0.00244900,0.00085017,-0.00053270,0
 .00081915,-0.00026574,-0.00015806,0.00010710,-0.00004748,-0.00001223,0
 .00040104,0.00074217,-0.00103383,0.00006201,-0.00052834,-0.00039913,0.
 00034600,0.00012231,0.00038903,0.00006229,0.00004386,0.00005196,0.0001
 9252,-0.00012784,-0.00030393,0.00018265,-0.00064976,-0.00007495,-0.000
 00170,0.00000350,0.00011731,-0.00026404,0.00020820,-0.00039671,0.00002
 181,-0.00003385,-0.00001592,-0.00004574,-0.00003094,0.00000365,-0.0000
 2056,-0.00001937,0.00000983,0.00181022,0.00085066,-0.00088330,-0.00139
 981,0.00025516,-0.00012344,-0.00071783,-0.00045686,0.00031256,-0.18140
 404,-0.06086095,-0.18348108,0.22333801,0.08960852,0.16753666,-0.000661
 35,-0.00062816,0.00015792,0.00179379,0.00006520,0.00072327,0.00052270,
 0.00023940,-0.00011721,-0.00002570,0.00004528,0.00001073,0.00002257,-0
 .00015441,-0.00006864,-0.00001139,-0.00001177,0.00003456,-0.00000143,0
 .00000569,0.00000035,0.00005995,0.00000717,0.00003573,-0.00001142,0.00
 011167,0.00006222,-0.00002380,0.00002675,0.00000435,-0.00000223,0.0000
 0129,0.00000288,-0.00000030,0.00000139,-0.00000441,-0.00000820,0.00000
 190,0.00000149,-0.00643266,-0.00034023,-0.00064289,0.02065368,0.018186
 18,-0.00939084,0.00008528,0.00117496,-0.00065627,-0.00759947,0.0027376
 5,-0.00095663,-0.00003489,0.00103490,-0.00102230,0.00265459,-0.0000122
 4,-0.00005174,-0.00000043,0.00323079,-0.00183559,0.00012213,0.00008235
 ,-0.00002643,-0.00010623,0.00014942,-0.00013042,-0.00064758,-0.0000775
 7,0.00057000,-0.00001408,-0.00004595,-0.00007072,-0.00016057,-0.000258
 55,-0.00011749,0.00016090,-0.00010987,-0.00014451,0.00000973,0.0002677
 8,0.00008539,0.00000355,-0.00001931,0.00000991,0.00010949,-0.00011941,
 0.00017081,0.00002119,0.00000974,-0.00004321,0.00000998,0.00000169,-0.
 00000022,0.00000028,0.00000421,0.00002185,0.00019504,-0.00015372,0.000
 48715,-0.00020379,0.00000807,-0.00007274,-0.00035493,0.00011251,-0.000
 14718,-0.13062783,-0.08381751,-0.00581770,-0.01895014,-0.09087853,-0.0
 0178102,0.13981126,-0.00269878,0.00027406,0.00442914,-0.00127186,-0.00
 251243,-0.00132284,0.00200070,0.00108168,-0.00010866,0.00005467,-0.000
 48674,-0.00032707,0.00002639,0.00018833,0.00004427,-0.00019857,-0.0001
 1097,-0.00012053,0.00001543,0.00006380,-0.00001406,-0.00041483,0.00008
 127,0.00019401,-0.00009116,0.00022854,0.00031407,-0.00029114,-0.000120
 49,-0.00013314,-0.00011255,-0.00000282,0.00000993,-0.00006244,-0.00007
 417,-0.00004753,-0.00006603,-0.00001602,0.00000034,0.01000332,0.003487
 55,0.00073938,0.01170012,-0.05491462,0.03067150,-0.00344375,0.00029384
 ,0.00147664,-0.01286276,-0.00251699,-0.00262086,0.00330072,0.00216689,
 -0.00163950,0.00358215,-0.00452123,0.00371016,0.00156573,-0.00009730,-
 0.00020794,-0.00002959,0.00012530,-0.00015147,-0.00030758,-0.00230476,
 -0.00042776,0.00038020,0.00028427,-0.00077524,-0.00038899,0.00011156,-
 0.00016563,0.00045457,0.00035413,-0.00015780,-0.00009856,-0.00017653,0
 .00040587,-0.00011820,0.00071480,-0.00002779,-0.00005568,-0.00002109,-
 0.00020411,0.00036693,0.00023472,0.00064854,-0.00011366,0.00010411,0.0
 0009203,0.00005772,0.00008734,0.00004655,-0.00003297,0.00002705,0.0000
 5155,-0.00346025,-0.00135287,0.00126778,0.00167583,-0.00030000,0.00010
 802,0.00094648,0.00112330,-0.00068383,-0.08250455,-0.52963647,0.099171
 92,-0.07719621,-0.07663793,-0.02719551,0.14889367,0.66505177,0.0007146
 3,-0.00114589,0.00000260,0.00163584,0.00272919,0.00065009,-0.00006038,
 -0.00009952,-0.00019872,-0.00007542,0.00028830,0.00014805,0.00008649,-
 0.00036055,-0.00008844,0.00005147,0.00008476,0.00012184,-0.00002702,-0
 .00002537,0.00002902,0.00027211,-0.00001045,-0.00008126,-0.00003266,0.
 00003685,-0.00005537,0.00013236,0.00008949,0.00009272,0.00005049,-0.00
 000241,-0.00000363,0.00003009,0.00003684,0.00001930,0.00002085,0.00001
 044,0.00000495,-0.00760594,-0.00023431,0.00174557,-0.00613510,0.037900
 09,0.00444703,0.00182550,-0.00066077,-0.00157418,0.00316134,0.00266892
 ,0.00060814,-0.00189659,-0.00076430,0.00075226,-0.00143278,0.00164508,
 -0.00231447,-0.00057022,0.00086789,0.00059278,0.00004551,-0.00004689,0
 .00007829,0.00029814,-0.00011912,-0.00004043,0.00052069,0.00006841,-0.
 00082681,0.00021864,-0.00016185,0.00010379,0.00016542,0.00020005,0.000
 08676,0.00006004,0.00006301,-0.00004634,-0.00007536,-0.00028422,0.0000
 3345,0.00000144,0.00001354,0.00008917,-0.00013412,-0.00007882,-0.00010
 446,-0.00001640,-0.00006833,0.00000410,-0.00004156,-0.00003684,-0.0000
 1662,-0.00000220,-0.00001616,-0.00002452,0.00161923,0.00060293,-0.0008
 2523,-0.00092868,0.00019327,0.00002125,-0.00047904,-0.00048450,0.00032
 908,-0.00267539,0.09477964,-0.11502378,-0.00901542,-0.03045205,0.03286
 868,0.02072809,-0.10726483,0.07852340,0.00030348,0.00007973,0.00019818
 ,-0.00115587,0.00006915,-0.00071373,0.00000117,-0.00002546,0.00004579,
 0.00006963,-0.00008890,-0.00007093,-0.00004434,0.00010901,0.00003957,-
 0.00003205,-0.00003468,-0.00005763,0.00001234,-0.00000647,-0.00000265,
 -0.00007026,0.00001153,0.00002386,-0.00000929,0.00000043,0.00003017,-0
 .00004497,-0.00001416,-0.00001386,-0.00001507,0.,0.00000296,-0.0000125
 5,-0.00001465,-0.00000814,-0.00000964,-0.00000561,-0.00000027,0.000793
 68,-0.00155545,0.00048183,-0.00041802,-0.00143065,0.00029722,0.0187936
 5,0.01567446,0.00042661,0.00178548,-0.00054657,0.00084322,-0.00648744,
 -0.00311060,0.00185088,0.00134276,0.00195354,-0.00180652,0.00007713,-0
 .00006553,0.00005440,0.00134750,-0.00138601,0.00090991,-0.00006396,-0.
 00010828,0.00007086,0.00008724,0.00000503,0.00001359,-0.00001395,-0.00
 005052,0.00005945,-0.00001344,0.00001490,-0.00001557,-0.00000726,0.000
 00423,-0.00000013,-0.00003833,0.00013315,-0.00007031,-0.00006940,-0.00
 007523,-0.00018115,0.00003404,0.00003045,0.00005845,-0.00000784,0.0000
 1789,0.00000289,0.00001031,0.00000332,0.00000720,-0.00000597,0.0000184
 9,0.00000057,-0.00089539,0.00012392,-0.00064097,0.00023189,-0.00028361
 ,0.00023937,0.00033018,0.00020737,0.00000951,-0.00005280,-0.00029895,0
 .00017427,-0.00005276,0.00006437,-0.00010884,0.00006898,0.00013230,-0.
 00003740,0.25362156,-0.00102310,-0.00042698,-0.00084717,0.00455758,0.0
 0162771,0.00186594,-0.00001542,-0.00012157,-0.00021707,-0.00018853,0.0
 0038308,0.00023497,0.00011247,-0.00032218,-0.00016659,0.00013229,0.000
 13218,0.00018183,-0.00003608,-0.00002105,0.00002549,0.00029435,-0.0000
 2468,-0.00011267,0.00001568,-0.00004791,-0.00010511,0.00018132,0.00007
 604,0.00006569,0.00006745,-0.00000293,-0.00000199,0.00004800,0.0000451
 0,0.00003777,0.00003574,0.00001042,0.00000685,-0.01420579,-0.00330034,
 0.00165958,0.00316423,0.00035116,0.00094878,0.02727531,-0.05902630,0.0
 1410974,-0.00244690,-0.00041041,-0.00003873,0.00727103,-0.00048197,-0.
 00332861,0.00032000,-0.00271901,0.00259865,0.00003614,0.00021270,-0.00
 007519,-0.00097444,-0.00165787,0.00056009,0.00036455,0.00047135,0.0000
 8777,-0.00038950,-0.00002570,-0.00019247,0.00028124,-0.00008861,0.0000
 0968,0.00002731,-0.00005737,-0.00003439,0.00000744,0.00002272,-0.00002
 084,0.00002450,-0.00022770,0.00006747,0.00004425,0.00012480,0.00027793
 ,-0.00006845,-0.00013394,-0.00012037,0.00001658,-0.00007000,-0.0000183
 3,-0.00004244,-0.00004064,-0.00002597,0.00000068,-0.00003751,-0.000008
 82,0.00309813,0.00023749,0.00031708,-0.00128883,0.00037950,-0.00027571
 ,-0.00122417,-0.00083837,0.00036048,-0.00189401,0.00100350,-0.00085419
 ,0.00068974,-0.00029661,0.00070572,0.00051326,-0.00143692,0.00071491,-
 0.28638383,0.54098653,-0.00072960,0.00069245,0.00038596,-0.00159166,-0
 .00182039,0.00130408,0.00018653,0.00005361,0.00018332,-0.00002060,-0.0
 0010517,-0.00007091,0.00000168,0.00006380,0.00003425,-0.00001723,-0.00
 001508,-0.00001979,0.00000601,0.00001589,-0.00001064,-0.00012294,0.000
 00230,0.00004901,0.00000063,0.00002148,0.00003257,-0.00005104,-0.00004
 765,-0.00005050,-0.00002444,0.00000186,0.00000012,-0.00000973,-0.00001
 090,-0.00001079,-0.00001111,0.00000047,-0.00000465,0.00551687,0.002256
 96,0.00082097,-0.00064561,-0.00112627,-0.00097586,-0.00576252,0.025284
 90,0.01551050,0.00087808,0.00059051,-0.00012812,-0.00016917,0.00314565
 ,-0.00026323,-0.00034092,0.00008710,-0.00116422,-0.00003756,-0.0000632
 6,0.00004460,-0.00022968,0.00123264,0.00008164,-0.00014012,-0.00025469
 ,-0.00028209,0.00015380,0.00002979,0.00008788,-0.00012536,0.00004133,0
 .00000535,-0.00002764,0.00002383,0.00003281,0.00001041,-0.00001550,0.0
 0000346,0.00001219,0.00000912,0.00003121,0.00000336,0.00011714,0.00001
 620,0.00001625,0.00004800,0.00000682,-0.00000466,0.00002092,0.00001044
 ,0.00001031,0.00002191,0.00001248,0.00000719,0.00000444,0.00000273,-0.
 00083519,-0.00010772,-0.00036060,0.00038453,-0.00001900,0.00007570,0.0
 0046273,0.00032498,-0.00003820,0.00054656,-0.00037602,0.00008838,-0.00
 016400,0.00011952,-0.00017856,-0.00018512,0.00037669,-0.00013195,-0.08
 809425,0.04585555,0.09327503,0.00276314,-0.00231945,-0.00045638,0.0008
 0965,0.00930560,-0.00680207,-0.00086093,-0.00045691,-0.00029651,0.0003
 8161,-0.00015597,-0.00009203,-0.00003380,0.00040366,0.00018067,-0.0000
 7137,-0.00013950,-0.00014877,0.00000076,0.00000422,-0.00000701,-0.0001
 4775,-0.00001969,0.00005242,0.00000815,-0.00005565,-0.00002111,-0.0000
 1707,0.00002112,0.00000102,-0.00000936,0.00000836,0.00000243,-0.000007
 57,-0.00002578,0.00000138,-0.00000808,-0.00000453,-0.00000448,-0.00982
 574,-0.00144694,0.00247610,0.00137485,0.00086563,-0.00140939,-0.011320
 69,-0.01291546,0.03923146,-0.00339357,0.00017593,-0.00026118,0.0053895
 4,0.00138441,-0.00171515,0.00129938,-0.00440883,0.00102776,0.00004337,
 0.00018136,0.00004216,0.00038985,0.00060882,0.00123386,0.00031050,0.00
 050896,0.00062316,0.00009775,-0.00024353,-0.00006311,-0.00004862,-0.00
 011565,-0.00003164,0.00005361,0.00001698,0.00005885,-0.00003898,0.0000
 2458,0.00001099,-0.00008565,0.00029072,-0.00011781,-0.00006787,-0.0003
 4740,-0.00028998,0.00003266,0.00000804,0.00009873,-0.00000429,0.000009
 32,-0.00000919,0.00001561,-0.00000656,-0.00000004,-0.00000795,0.000021
 35,-0.00000190,0.00112145,-0.00012489,0.00003083,-0.00045675,-0.000026
 22,-0.00002905,-0.00069943,-0.00032699,0.00026608,-0.00072834,0.000279
 04,-0.00034467,0.00040326,-0.00010607,0.00019709,0.00032898,-0.0002350
 7,0.00019605,-0.05475251,0.06635756,0.05579190,0.40683026,-0.00090841,
 0.00050292,-0.00025970,0.00327413,-0.00225917,0.00498023,0.00020818,0.
 00004231,-0.00009140,-0.00020216,0.00030487,0.00016462,0.00005503,-0.0
 0029502,-0.00020149,0.00009760,0.00012006,0.00014936,-0.00001800,-0.00
 003278,0.00002753,0.00026916,-0.00001612,-0.00008542,-0.00000980,-0.00
 002094,-0.00003927,0.00012253,0.00007099,0.00006021,0.00004917,-0.0000
 0854,0.00000090,0.00003002,0.00003342,0.00002446,0.00002376,0.00000465
 ,0.00000966,-0.00194309,-0.00086260,0.00169465,0.00159052,0.00149162,-
 0.00104901,-0.02194745,0.01083652,0.02324149,-0.00282046,0.00003819,-0
 .00010165,0.00364015,-0.00007410,0.00214126,-0.00053940,-0.00329882,0.
 00054845,0.00003729,0.00007853,-0.00010343,-0.00008216,0.00049730,0.00
 057024,0.00005498,-0.00013687,-0.00008034,-0.00030566,0.00015644,-0.00
 006894,0.00009481,0.00013913,-0.00011759,0.00002022,-0.00007030,-0.000
 07859,0.00001903,-0.00000194,-0.00000984,0.00016876,-0.00033933,0.0001
 5336,-0.00004034,0.00010222,0.00058357,-0.00005587,-0.00010917,-0.0001
 3373,0.00000971,-0.00004848,-0.00000753,-0.00004303,-0.00002396,-0.000
 01991,0.00000217,-0.00004033,0.00000421,0.00196389,-0.00043653,-0.0001
 8995,-0.00073596,0.00024765,-0.00013689,-0.00090534,-0.00048164,0.0004
 6208,-0.00056761,0.00097412,-0.00062191,0.00034196,-0.00022810,0.00041
 296,0.00009982,-0.00066184,0.00030054,0.07558012,-0.00961293,-0.057943
 85,-0.08450496,0.12441507,-0.00073311,0.00075956,0.00024919,-0.0047800
 1,0.00293623,-0.00453558,-0.00011366,0.00008662,0.00003019,0.00019147,
 -0.00031989,-0.00015071,-0.00003606,0.00027102,0.00014340,-0.00011657,
 -0.00011979,-0.00014403,0.00000511,0.00005382,-0.00003047,-0.00025748,
 0.00001466,0.00010266,0.00000997,-0.00000003,0.00006421,-0.00014238,-0
 .00006494,-0.00005647,-0.00005445,0.00000943,-0.00000428,-0.00002232,-
 0.00002901,-0.00002271,-0.00002211,-0.00000535,-0.00000585,0.00469770,
 -0.00188935,-0.00033826,-0.00119673,-0.00153452,0.00022425,0.04330567,
 0.01083259,-0.02077326,0.00297652,-0.00006122,0.00031726,-0.00561310,0
 .00465025,-0.00137263,0.00108738,0.00279190,-0.00105612,-0.00010476,-0
 .00008814,0.00007843,-0.00074665,-0.00074699,-0.00056147,-0.00012285,-
 0.00055185,0.00004519,0.00032613,-0.00005853,0.00015945,-0.00048135,0.
 00018608,-0.00029331,0.00002143,0.00002999,0.00009780,0.00000492,-0.00
 003332,0.00002307,0.00012776,0.00008697,0.00011670,0.00006899,0.000163
 12,0.00007613,0.00000037,0.00005757,0.00005760,-0.00000451,0.00003944,
 0.00001341,0.00003882,0.00006315,0.00001237,0.00001362,0.00000151,0.00
 001073,-0.00206002,0.00015045,-0.00046304,0.00085045,-0.00005265,0.000
 13179,0.00120748,0.00081986,-0.00040969,0.00064608,-0.00110825,0.00062
 425,-0.00037547,0.00023382,-0.00040186,-0.00016709,0.00069183,-0.00029
 754,0.05141037,-0.05695393,-0.00201393,-0.34233607,0.03603467,0.366322
 53,-0.00207015,0.00202268,0.00125316,-0.00286123,-0.00595465,0.0007617
 5,0.00086062,0.00029820,0.00027700,-0.00033489,0.00009166,0.00006511,0
 .00002423,-0.00035050,-0.00017398,0.00004852,0.00010367,0.00011482,-0.
 00000170,0.00001307,0.00000053,0.00009271,0.00001265,-0.00002131,0.000
 00016,0.00005663,0.00003616,-0.00001359,-0.00003045,-0.00001426,-0.000
 00096,-0.00000357,-0.00000369,0.00000510,0.00002078,-0.00000474,0.0000
 0391,0.00000620,0.00000308,0.02411412,0.01874905,-0.01503497,-0.003586
 76,0.00227448,-0.00100674,-0.11710144,-0.00744696,-0.00363679,-0.00024
 941,0.00102490,-0.00097137,-0.00871236,-0.03351954,0.02781423,-0.00798
 699,0.00212080,-0.00096293,-0.00002455,-0.00019570,-0.00003907,-0.0008
 7318,-0.00028904,-0.00064211,-0.00035141,-0.00069846,-0.00068254,-0.00
 003522,0.00025386,0.00011076,0.00005404,0.00016443,-0.00003132,-0.0000
 4846,-0.00004047,-0.00006716,0.00003904,-0.00003588,0.00000012,0.00009
 488,-0.00024985,0.00015596,0.00003591,0.00034591,0.00035334,-0.0000321
 9,-0.00000914,-0.00004440,0.00000772,-0.00000101,0.00001364,-0.0000009
 9,0.00002644,0.00000059,0.00001612,-0.00002450,0.00000225,0.00035671,-
 0.00182825,0.00101005,0.00022319,0.00042682,-0.00023248,-0.00051816,-0
 .00018175,0.00012034,0.00159900,0.00074389,-0.00006544,-0.00030754,0.0
 0017611,-0.00021345,-0.00075564,0.00089823,-0.00059275,-0.21463790,0.1
 9524464,0.03535112,-0.33906809,0.02787671,0.25249652,0.67199681,0.0015
 2602,0.00151840,0.00116606,-0.01156388,-0.00469369,-0.00412701,0.00029
 153,0.00033796,0.00056110,0.00023489,-0.00069735,-0.00039459,-0.000206
 51,0.00047601,0.00021618,-0.00022451,-0.00019934,-0.00028080,0.0000597
 3,0.00005110,-0.00005139,-0.00050384,0.00006485,0.00019938,-0.00001799
 ,0.00010351,0.00021205,-0.00034118,-0.00015540,-0.00012402,-0.00012503
 ,0.00000636,0.00000016,-0.00008334,-0.00007472,-0.00007007,-0.00006348
 ,-0.00001730,-0.00001188,0.01268287,-0.01921811,0.00944115,-0.00165553
 ,-0.00088675,0.00477248,-0.00658279,-0.12795701,0.03857808,0.01017225,
 -0.00045067,0.00076879,-0.02998144,-0.01645433,0.01740988,-0.00118455,
 0.01517883,-0.00427821,-0.00005931,-0.00056779,0.00008742,0.00268834,-
 0.00256778,-0.00359846,-0.00088908,-0.00067312,-0.00021628,0.00082254,
 0.00001909,0.00040211,-0.00060573,0.00011533,-0.00001502,-0.00004141,0
 .00016848,0.00011002,-0.00001094,-0.00005022,0.00003049,-0.00004670,0.
 00031343,-0.00004571,0.00000012,-0.00010049,-0.00048988,0.00008581,0.0
 0022852,0.00014027,-0.00003425,0.00012781,0.00004602,0.00008049,0.0000
 7829,0.00004415,0.00000728,0.00005940,0.00001721,-0.00619485,0.0003046
 9,0.00027774,0.00241928,-0.00079679,0.00055094,0.00262479,0.00154253,-
 0.00127652,0.00179136,-0.00299410,0.00223304,-0.00135553,0.00050618,-0
 .00122772,-0.00038553,0.00181788,-0.00097696,0.20125180,-0.46463480,-0
 .01853734,0.02751037,-0.12099649,0.00265322,-0.20209208,0.74116757,0.0
 0244061,-0.00329158,-0.00167726,0.00747993,0.00652916,-0.00545371,-0.0
 0066683,-0.00029913,-0.00054959,0.00009822,0.00029742,0.00018157,-0.00
 001866,-0.00007468,-0.00005383,0.00006688,0.00002438,0.00004445,-0.000
 01848,-0.00004595,0.00002681,0.00029688,-0.00001911,-0.00011523,0.0000
 0077,-0.00007942,-0.00009821,0.00014908,0.00012879,0.00011216,0.000068
 93,-0.00000345,0.00000420,0.00003030,0.00002524,0.00003407,0.00002989,
 -0.00000074,0.00001096,-0.01401110,0.01423194,-0.00788890,0.00039682,0
 .00463457,0.00254774,0.00034601,0.04040923,-0.10953369,-0.00591218,-0.
 00108703,-0.00117786,0.01599198,0.00514095,-0.00950940,0.00050902,-0.0
 0306594,0.01021371,0.00012580,0.00017689,-0.00023353,0.00023449,-0.002
 03867,-0.00279779,0.00066177,0.00103464,0.00082355,-0.00038403,-0.0002
 4900,-0.00028693,0.00032426,-0.00025635,0.00004093,0.00006522,-0.00003
 631,-0.00001371,-0.00002687,0.00005100,-0.00001660,-0.00010892,0.00002
 963,-0.00010302,-0.00001249,-0.00028480,-0.00012147,-0.00002327,-0.000
 11905,-0.00004963,0.00000716,-0.00006011,-0.00003311,-0.00003095,-0.00
 007603,-0.00003392,-0.00001988,-0.00000368,-0.00001225,0.00311225,0.00
 127646,0.00220735,-0.00138886,0.00006352,-0.00033566,-0.00167043,-0.00
 158065,-0.00007227,-0.00104014,0.00150641,-0.00055438,0.00056629,-0.00
 032050,0.00057778,0.00034370,-0.00085412,0.00030141,0.03457124,-0.0072
 9384,-0.10639146,0.25291462,-0.01022400,-0.33596939,-0.29549903,-0.044
 19612,0.56595610\\-0.00001488,-0.00000731,-0.00001071,0.00002895,0.000
 02021,0.00000316,0.00002151,0.00000514,0.00000869,-0.00001162,0.000002
 86,0.00000227,-0.00000679,-0.00001192,-0.00000369,0.00000280,0.0000020
 9,0.00000411,-0.00000012,-0.00000087,0.00000011,0.00000390,-0.00000026
 ,0.00000370,0.00000104,-0.00000099,0.00000312,-0.00000050,-0.00000099,
 0.00000245,-0.00000086,0.00000048,0.00000041,-0.00000189,-0.00000362,0
 .00000401,-0.00000030,-0.00000160,0.00000283,-0.00004710,-0.00000633,-
 0.00001396,0.00000256,0.00000744,0.00000278,0.00001156,-0.00000152,0.0
 0000641,-0.00000549,-0.00001196,0.00000012,-0.00001150,-0.00000283,0.0
 0000352,0.00000301,0.00000460,-0.00000345,-0.00000045,-0.00000096,-0.0
 0000110,-0.00000113,0.00000021,-0.00000018,0.00000455,-0.00000028,0.00
 000101,0.00000192,0.00000688,-0.00000397,0.00000284,0.00000513,0.00000
 272,0.00000111,0.00000029,-0.00000501,0.00000084,-0.00000210,-0.000001
 67,0.00000102,0.00000082,-0.00000395,0.00000031,0.00000112,-0.00000376
 ,-0.00000082,0.00000146,-0.00000433,-0.00000011,0.00000081,-0.00000517
 ,0.00000015,0.00000520,-0.00000262,0.00000066,0.00000295,-0.00000521,-
 0.00000635,0.00000068,0.00000102,0.00000475,0.00001272,-0.00000964,0.0
 0001201,-0.00001274,0.00000555,0.00000367,0.00000359,0.00000276,0.0000
 0071,-0.00000939,-0.00000025,-0.00000373,-0.00000530,-0.00000333,-0.00
 001454,0.00000379,0.00001570,0.00000186,-0.00001183,0.00000564,0.00001
 646,0.00000430,-0.00000009\\\@


 Mondays are the potholes in the road of life.
                                -- Tom Wilson
 Job cpu time:       1 days 19 hours 10 minutes 49.7 seconds.
 Elapsed time:       0 days  2 hours  9 minutes 46.2 seconds.
 File lengths (MBytes):  RWF=   3193 Int=      0 D2E=      0 Chk=     82 Scr=      1
 Normal termination of Gaussian 16 at Fri Apr 29 18:03:22 2022.
