 Entering Gaussian System, Link 0=g16
 Initial command:
 /home/raul/G16Linux_x86_64_SSEenabled_RevA03/g16/l1.exe "/home/raul/scratch/Gau-58718.inp" -scrdir="/home/raul/scratch/"
 Entering Link 1 = /home/raul/G16Linux_x86_64_SSEenabled_RevA03/g16/l1.exe PID=     58720.
  
 Copyright (c) 1988,1990,1992,1993,1995,1998,2003,2009,2016,
            Gaussian, Inc.  All Rights Reserved.
  
 This is part of the Gaussian(R) 16 program.  It is based on
 the Gaussian(R) 09 system (copyright 2009, Gaussian, Inc.),
 the Gaussian(R) 03 system (copyright 2003, Gaussian, Inc.),
 the Gaussian(R) 98 system (copyright 1998, Gaussian, Inc.),
 the Gaussian(R) 94 system (copyright 1995, Gaussian, Inc.),
 the Gaussian 92(TM) system (copyright 1992, Gaussian, Inc.),
 the Gaussian 90(TM) system (copyright 1990, Gaussian, Inc.),
 the Gaussian 88(TM) system (copyright 1988, Gaussian, Inc.),
 the Gaussian 86(TM) system (copyright 1986, Carnegie Mellon
 University), and the Gaussian 82(TM) system (copyright 1983,
 Carnegie Mellon University). Gaussian is a federally registered
 trademark of Gaussian, Inc.
  
 This software contains proprietary and confidential information,
 including trade secrets, belonging to Gaussian, Inc.
  
 This software is provided under written license and may be
 used, copied, transmitted, or stored only in accord with that
 written license.
  
 The following legend is applicable only to US Government
 contracts under FAR:
  
                    RESTRICTED RIGHTS LEGEND
  
 Use, reproduction and disclosure by the US Government is
 subject to restrictions as set forth in subparagraphs (a)
 and (c) of the Commercial Computer Software - Restricted
 Rights clause in FAR 52.227-19.
  
 Gaussian, Inc.
 340 Quinnipiac St., Bldg. 40, Wallingford CT 06492
  
  
 ---------------------------------------------------------------
 Warning -- This program may not be used in any manner that
 competes with the business of Gaussian, Inc. or will provide
 assistance to any competitor of Gaussian, Inc.  The licensee
 of this program is prohibited from giving any competitor of
 Gaussian, Inc. access to this program.  By using this program,
 the user acknowledges that Gaussian, Inc. is engaged in the
 business of creating and licensing software in the field of
 computational chemistry and represents and warrants to the
 licensee that it is not a competitor of Gaussian, Inc. and that
 it will not use this program in any manner prohibited above.
 ---------------------------------------------------------------
  

 Cite this work as:
 Gaussian 16, Revision A.03,
 M. J. Frisch, G. W. Trucks, H. B. Schlegel, G. E. Scuseria, 
 M. A. Robb, J. R. Cheeseman, G. Scalmani, V. Barone, 
 G. A. Petersson, H. Nakatsuji, X. Li, M. Caricato, A. V. Marenich, 
 J. Bloino, B. G. Janesko, R. Gomperts, B. Mennucci, H. P. Hratchian, 
 J. V. Ortiz, A. F. Izmaylov, J. L. Sonnenberg, D. Williams-Young, 
 F. Ding, F. Lipparini, F. Egidi, J. Goings, B. Peng, A. Petrone, 
 T. Henderson, D. Ranasinghe, V. G. Zakrzewski, J. Gao, N. Rega, 
 G. Zheng, W. Liang, M. Hada, M. Ehara, K. Toyota, R. Fukuda, 
 J. Hasegawa, M. Ishida, T. Nakajima, Y. Honda, O. Kitao, H. Nakai, 
 T. Vreven, K. Throssell, J. A. Montgomery, Jr., J. E. Peralta, 
 F. Ogliaro, M. J. Bearpark, J. J. Heyd, E. N. Brothers, K. N. Kudin, 
 V. N. Staroverov, T. A. Keith, R. Kobayashi, J. Normand, 
 K. Raghavachari, A. P. Rendell, J. C. Burant, S. S. Iyengar, 
 J. Tomasi, M. Cossi, J. M. Millam, M. Klene, C. Adamo, R. Cammi, 
 J. W. Ochterski, R. L. Martin, K. Morokuma, O. Farkas, 
 J. B. Foresman, and D. J. Fox, Gaussian, Inc., Wallingford CT, 2016.
 
 ******************************************
 Gaussian 16:  ES64L-G16RevA.03 25-Dec-2016
                29-Apr-2022 
 ******************************************
 %chk=TSDPPHbisFG.chk
 %nprocshared=32
 Will use up to   32 processors via shared memory.
 %mem=64GB
 ----------------------------------------------------------------------
 # opt=(readfc,ts,noeigen) freq 6-31+g(d,p) guess=check geom=check scrf
 (smd,solvent=ethanol) iop(1/8=4) m052x scf=(xqc,direct)
 ----------------------------------------------------------------------
 1/5=1,8=4,10=3,11=1,18=20,26=3,29=2,38=1/1,3;
 2/9=110,12=2,40=1/2;
 3/5=1,6=6,7=111,11=2,14=-4,25=1,30=1,70=32201,71=1,72=4,74=-38,116=-2/1,2,3;
 4/5=1/1;
 5/5=2,8=3,13=1,38=6,53=4/2,8;
 6/7=2,8=2,9=2,10=2,28=1/1;
 7//1,2,3,16;
 1/5=1,8=4,11=1,18=20,26=3/3(2);
 2/9=110/2;
 99//99;
 2/9=110/2;
 3/5=1,6=6,7=111,11=2,14=-2,25=1,30=1,70=32205,71=1,72=4,74=-38/1,2,3;
 4/5=5,16=3,69=1/1;
 5/5=2,8=3,13=1,38=5,53=4/2,8;
 7//1,2,3,16;
 1/5=1,8=4,11=1,18=20,26=3/3(-5);
 2/9=110/2;
 6/7=2,8=2,9=2,10=2,19=2,28=1/1;
 99/9=1/99;
 -------------------
 Title Card Required
 -------------------
 Structure from the checkpoint file:  "TSDPPHbisFG.chk"
 Charge =  0 Multiplicity = 2
 Redundant internal coordinates found in file.  (old form).
 C,0,1.7970270575,2.1722142517,-1.1388780194
 C,0,1.6855125364,2.0932585583,-2.6026449737
 C,0,3.0255823863,1.6402810142,-0.5445069764
 H,0,1.4220114943,3.0867487489,-0.6880727463
 H,0,2.1441468022,1.217818156,-3.054185767
 C,0,1.0758639591,2.97144219,-3.4202259084
 H,0,3.5571860975,0.9056556065,-1.1430694984
 C,0,3.5401406499,1.9465951919,0.6652568382
 H,0,1.0836097005,2.7368638128,-4.4808105011
 C,0,0.4102688459,4.2612338931,-3.049888565
 H,0,4.4633143907,1.4473001393,0.945076101
 C,0,2.9984749902,2.9224739894,1.6627503677
 H,0,-0.6627342615,4.2116367474,-3.2526878714
 H,0,0.5347615499,4.5188733253,-2.0004844706
 H,0,0.8167954786,5.0734671714,-3.6579324504
 H,0,3.7238784144,3.7227649773,1.8356397836
 H,0,2.0562367021,3.3682603383,1.3510981861
 H,0,2.8406850135,2.4277356388,2.6256765785
 H,0,0.9178668986,1.2656977276,-0.7300388471
 N,0,0.2300222583,0.1193621913,-0.3281480524
 N,0,1.0951545006,-0.7917685608,0.1612355152
 C,0,-1.0699077538,0.0770883252,0.0491550333
 C,0,2.0289429469,-1.3473685771,-0.7380094733
 C,0,1.123096295,-1.0436662018,1.5639573785
 C,0,-1.8399761585,-1.0901571033,0.3429023751
 C,0,-1.830886568,1.2750999361,0.1414080917
 C,0,3.2760360238,-1.7950617641,-0.2826543098
 C,0,1.7266245667,-1.3967062237,-2.1014035211
 C,0,1.2734383598,-2.3523779905,2.026913016
 C,0,0.9359704686,0.0102307993,2.4599201361
 C,0,-3.1828258935,-1.0554082524,0.6724556991
 N,0,-1.3104681055,-2.4467913789,0.1807394986
 C,0,-3.1825712682,1.3373166219,0.3917003529
 N,0,-1.1693627195,2.5825396251,0.091952254
 C,0,4.2022899257,-2.2911019366,-1.1904524109
 H,0,3.5254879827,-1.7270602895,0.7677142614
 C,0,2.6700422187,-1.884913225,-2.999025211
 H,0,0.7580650659,-1.0590475903,-2.4413812633
 C,0,1.2661785051,-2.5976063955,3.3957578807
 H,0,1.3742187924,-3.1647098581,1.317076074
 C,0,0.9176945312,-0.2519447515,3.8257945703
 H,0,0.8029804343,1.0161131047,2.0829976807
 C,0,-3.8531578619,0.1552621057,0.6711755659
 H,0,-3.7069819984,-1.9753986576,0.8899231979
 O,0,-0.5819324941,-2.65389577,-0.7702746616
 O,0,-1.685650295,-3.2914118731,0.9710482233
 H,0,-3.6984155684,2.2875737421,0.4178848473
 O,0,-1.5634520093,3.3812042405,-0.7318588765
 O,0,-0.316181171,2.8058682253,0.9323063458
 C,0,3.9100834047,-2.3363016979,-2.5538781883
 H,0,5.1655587221,-2.6297299689,-0.8297639612
 H,0,2.4251444011,-1.9216565367,-4.0533598355
 C,0,1.0898768232,-1.5514367242,4.2994300187
 H,0,1.3757235457,-3.6136017967,3.7530173731
 H,0,0.7727761791,0.5658501438,4.5208616662
 N,0,-5.2747691723,0.1928982426,0.9762832849
 H,0,4.63877703,-2.7185721524,-3.2568877785
 H,0,1.0752578547,-1.7491153677,5.3635637265
 O,0,-5.822192562,1.2805238523,0.9542784292
 O,0,-5.822784943,-0.8626789897,1.2329757871
 Recover connectivity data from disk.

 GradGradGradGradGradGradGradGradGradGradGradGradGradGradGradGradGradGrad
 Berny optimization.
 Initialization pass.
 Force constant matrix read from checkpoint file:
 "TSDPPHbisFG.chk"
                           ----------------------------
                           !    Initial Parameters    !
                           ! (Angstroms and Degrees)  !
 --------------------------                            --------------------------
 ! Name  Definition              Value          Derivative Info.                !
 --------------------------------------------------------------------------------
 ! R1    R(1,2)                  1.4701         D2E/DX2 =    0.3274             !
 ! R2    R(1,3)                  1.4648         D2E/DX2 =    0.3277             !
 ! R3    R(1,4)                  1.0864         D2E/DX2 =    0.3652             !
 ! R4    R(1,19)                 1.3273         D2E/DX2 =    0.0862             !
 ! R5    R(2,5)                  1.0866         D2E/DX2 =    0.3651             !
 ! R6    R(2,6)                  1.3459         D2E/DX2 =    0.6007             !
 ! R7    R(3,7)                  1.0865         D2E/DX2 =    0.3651             !
 ! R8    R(3,8)                  1.3499         D2E/DX2 =    0.5797             !
 ! R9    R(6,9)                  1.0862         D2E/DX2 =    0.3647             !
 ! R10   R(6,10)                 1.4979         D2E/DX2 =    0.318              !
 ! R11   R(8,11)                 1.0862         D2E/DX2 =    0.3652             !
 ! R12   R(8,12)                 1.4969         D2E/DX2 =    0.3181             !
 ! R13   R(10,13)                1.0931         D2E/DX2 =    0.3469             !
 ! R14   R(10,14)                1.0877         D2E/DX2 =    0.3613             !
 ! R15   R(10,15)                1.093          D2E/DX2 =    0.3463             !
 ! R16   R(12,16)                1.0939         D2E/DX2 =    0.3443             !
 ! R17   R(12,17)                1.088          D2E/DX2 =    0.3619             !
 ! R18   R(12,18)                1.094          D2E/DX2 =    0.344              !
 ! R19   R(19,20)                1.396          D2E/DX2 =   -0.0001             !
 ! R20   R(20,21)                1.3484         D2E/DX2 =    0.4601             !
 ! R21   R(20,22)                1.3542         D2E/DX2 =    0.4897             !
 ! R22   R(21,23)                1.4104         D2E/DX2 =    0.3927             !
 ! R23   R(21,24)                1.4254         D2E/DX2 =    0.369              !
 ! R24   R(22,25)                1.4289         D2E/DX2 =    0.3779             !
 ! R25   R(22,26)                1.4223         D2E/DX2 =    0.3794             !
 ! R26   R(23,27)                1.4011         D2E/DX2 =    0.3968             !
 ! R27   R(23,28)                1.3974         D2E/DX2 =    0.4051             !
 ! R28   R(24,29)                1.3963         D2E/DX2 =    0.4052             !
 ! R29   R(24,30)                1.3959         D2E/DX2 =    0.4066             !
 ! R30   R(25,31)                1.3831         D2E/DX2 =    0.4329             !
 ! R31   R(25,32)                1.4653         D2E/DX2 =    0.2983             !
 ! R32   R(26,33)                1.3761         D2E/DX2 =    0.4485             !
 ! R33   R(26,34)                1.4661         D2E/DX2 =    0.3054             !
 ! R34   R(27,35)                1.3886         D2E/DX2 =    0.4237             !
 ! R35   R(27,36)                1.0817         D2E/DX2 =    0.3779             !
 ! R36   R(28,37)                1.3907         D2E/DX2 =    0.418              !
 ! R37   R(28,38)                1.0806         D2E/DX2 =    0.382              !
 ! R38   R(29,39)                1.3907         D2E/DX2 =    0.4194             !
 ! R39   R(29,40)                1.0835         D2E/DX2 =    0.3747             !
 ! R40   R(30,41)                1.3909         D2E/DX2 =    0.4189             !
 ! R41   R(30,42)                1.0824         D2E/DX2 =    0.3786             !
 ! R42   R(31,43)                1.3839         D2E/DX2 =    0.4315             !
 ! R43   R(31,44)                1.0809         D2E/DX2 =    0.3846             !
 ! R44   R(32,45)                1.2158         D2E/DX2 =    0.7639             !
 ! R45   R(32,46)                1.216          D2E/DX2 =    0.7516             !
 ! R46   R(33,43)                1.3875         D2E/DX2 =    0.4263             !
 ! R47   R(33,47)                1.0816         D2E/DX2 =    0.3827             !
 ! R48   R(34,48)                1.2132         D2E/DX2 =    0.7742             !
 ! R49   R(34,49)                1.2182         D2E/DX2 =    0.7477             !
 ! R50   R(35,50)                1.3951         D2E/DX2 =    0.4095             !
 ! R51   R(35,51)                1.0829         D2E/DX2 =    0.3743             !
 ! R52   R(37,50)                1.3927         D2E/DX2 =    0.4152             !
 ! R53   R(37,52)                1.083          D2E/DX2 =    0.374              !
 ! R54   R(39,53)                1.3936         D2E/DX2 =    0.4127             !
 ! R55   R(39,54)                1.0825         D2E/DX2 =    0.3756             !
 ! R56   R(41,53)                1.3938         D2E/DX2 =    0.4127             !
 ! R57   R(41,55)                1.083          D2E/DX2 =    0.3742             !
 ! R58   R(43,56)                1.4545         D2E/DX2 =    0.3231             !
 ! R59   R(50,57)                1.0823         D2E/DX2 =    0.3758             !
 ! R60   R(53,58)                1.0824         D2E/DX2 =    0.3755             !
 ! R61   R(56,59)                1.2178         D2E/DX2 =    0.7475             !
 ! R62   R(56,60)                1.2167         D2E/DX2 =    0.7512             !
 ! A1    A(2,1,3)              116.6242         D2E/DX2 =    0.051              !
 ! A2    A(2,1,4)              115.6066         D2E/DX2 =    0.0363             !
 ! A3    A(2,1,19)             102.6949         D2E/DX2 =    0.0453             !
 ! A4    A(3,1,4)              115.2678         D2E/DX2 =    0.0329             !
 ! A5    A(3,1,19)             100.5172         D2E/DX2 =    0.0574             !
 ! A6    A(4,1,19)             102.6192         D2E/DX2 =    0.0175             !
 ! A7    A(1,2,5)              115.152          D2E/DX2 =    0.1056             !
 ! A8    A(1,2,6)              127.1691         D2E/DX2 =    0.1555             !
 ! A9    A(5,2,6)              117.6764         D2E/DX2 =    0.1049             !
 ! A10   A(1,3,7)              115.6172         D2E/DX2 =    0.1072             !
 ! A11   A(1,3,8)              126.9396         D2E/DX2 =    0.1605             !
 ! A12   A(7,3,8)              117.4283         D2E/DX2 =    0.1065             !
 ! A13   A(2,6,9)              116.6789         D2E/DX2 =    0.1038             !
 ! A14   A(2,6,10)             127.8027         D2E/DX2 =    0.1456             !
 ! A15   A(9,6,10)             115.5002         D2E/DX2 =    0.1006             !
 ! A16   A(3,8,11)             116.7786         D2E/DX2 =    0.1032             !
 ! A17   A(3,8,12)             127.388          D2E/DX2 =    0.1438             !
 ! A18   A(11,8,12)            115.8204         D2E/DX2 =    0.0993             !
 ! A19   A(6,10,13)            110.5628         D2E/DX2 =    0.1001             !
 ! A20   A(6,10,14)            113.0556         D2E/DX2 =    0.1084             !
 ! A21   A(6,10,15)            109.6977         D2E/DX2 =    0.1024             !
 ! A22   A(13,10,14)           107.5827         D2E/DX2 =    0.0566             !
 ! A23   A(13,10,15)           107.1931         D2E/DX2 =    0.055              !
 ! A24   A(14,10,15)           108.5492         D2E/DX2 =    0.0578             !
 ! A25   A(8,12,16)            110.0179         D2E/DX2 =    0.1005             !
 ! A26   A(8,12,17)            112.9313         D2E/DX2 =    0.109              !
 ! A27   A(8,12,18)            110.1142         D2E/DX2 =    0.1011             !
 ! A28   A(16,12,17)           108.6525         D2E/DX2 =    0.0571             !
 ! A29   A(16,12,18)           106.7012         D2E/DX2 =    0.0544             !
 ! A30   A(17,12,18)           108.2107         D2E/DX2 =    0.0579             !
 ! A31   A(19,20,21)           110.074          D2E/DX2 =    0.2092             !
 ! A32   A(19,20,22)           125.3676         D2E/DX2 =    0.2629             !
 ! A33   A(21,20,22)           119.582          D2E/DX2 =    0.2594             !
 ! A34   A(20,21,23)           117.3594         D2E/DX2 =    0.2306             !
 ! A35   A(20,21,24)           119.2847         D2E/DX2 =    0.237              !
 ! A36   A(23,21,24)           123.0125         D2E/DX2 =    0.2116             !
 ! A37   A(20,22,25)           126.8761         D2E/DX2 =    0.3481             !
 ! A38   A(20,22,26)           120.3558         D2E/DX2 =    0.3556             !
 ! A39   A(25,22,26)           112.7307         D2E/DX2 =    0.0974             !
 ! A40   A(21,23,27)           120.528          D2E/DX2 =    0.1763             !
 ! A41   A(21,23,28)           119.5207         D2E/DX2 =    0.1782             !
 ! A42   A(27,23,28)           119.8933         D2E/DX2 =    0.0904             !
 ! A43   A(21,24,29)           119.605          D2E/DX2 =    0.1536             !
 ! A44   A(21,24,30)           119.7085         D2E/DX2 =    0.1577             !
 ! A45   A(29,24,30)           120.6149         D2E/DX2 =    0.0886             !
 ! A46   A(22,25,31)           123.4828         D2E/DX2 =    0.0937             !
 ! A47   A(22,25,32)           122.6021         D2E/DX2 =    0.2258             !
 ! A48   A(31,25,32)           113.6073         D2E/DX2 =    0.2252             !
 ! A49   A(22,26,33)           125.1311         D2E/DX2 =    0.0929             !
 ! A50   A(22,26,34)           120.5016         D2E/DX2 =    0.1789             !
 ! A51   A(33,26,34)           114.144          D2E/DX2 =    0.18               !
 ! A52   A(23,27,35)           119.6974         D2E/DX2 =    0.0829             !
 ! A53   A(23,27,36)           120.0501         D2E/DX2 =    0.0826             !
 ! A54   A(35,27,36)           120.2284         D2E/DX2 =    0.0836             !
 ! A55   A(23,28,37)           119.6942         D2E/DX2 =    0.0825             !
 ! A56   A(23,28,38)           119.3306         D2E/DX2 =    0.0813             !
 ! A57   A(37,28,38)           120.9743         D2E/DX2 =    0.0816             !
 ! A58   A(24,29,39)           119.4112         D2E/DX2 =    0.0824             !
 ! A59   A(24,29,40)           119.7036         D2E/DX2 =    0.0827             !
 ! A60   A(39,29,40)           120.8739         D2E/DX2 =    0.0825             !
 ! A61   A(24,30,41)           119.3244         D2E/DX2 =    0.0819             !
 ! A62   A(24,30,42)           119.6432         D2E/DX2 =    0.0834             !
 ! A63   A(41,30,42)           121.0318         D2E/DX2 =    0.0832             !
 ! A64   A(25,31,43)           119.475          D2E/DX2 =    0.0831             !
 ! A65   A(25,31,44)           119.8242         D2E/DX2 =    0.0793             !
 ! A66   A(43,31,44)           120.6566         D2E/DX2 =    0.0787             !
 ! A67   A(25,32,45)           117.4405         D2E/DX2 =    0.1944             !
 ! A68   A(25,32,46)           117.3641         D2E/DX2 =    0.2067             !
 ! A69   A(45,32,46)           125.0958         D2E/DX2 =    0.2463             !
 ! A70   A(26,33,43)           118.2209         D2E/DX2 =    0.0813             !
 ! A71   A(26,33,47)           120.8386         D2E/DX2 =    0.0787             !
 ! A72   A(43,33,47)           120.8728         D2E/DX2 =    0.0782             !
 ! A73   A(26,34,48)           117.6073         D2E/DX2 =    0.1869             !
 ! A74   A(26,34,49)           117.1443         D2E/DX2 =    0.1877             !
 ! A75   A(48,34,49)           125.1169         D2E/DX2 =    0.2403             !
 ! A76   A(27,35,50)           120.7155         D2E/DX2 =    0.0821             !
 ! A77   A(27,35,51)           119.165          D2E/DX2 =    0.0829             !
 ! A78   A(50,35,51)           120.1121         D2E/DX2 =    0.0827             !
 ! A79   A(28,37,50)           120.7628         D2E/DX2 =    0.0821             !
 ! A80   A(28,37,52)           119.1339         D2E/DX2 =    0.083              !
 ! A81   A(50,37,52)           120.0995         D2E/DX2 =    0.0829             !
 ! A82   A(29,39,53)           120.4343         D2E/DX2 =    0.0819             !
 ! A83   A(29,39,54)           119.3286         D2E/DX2 =    0.0827             !
 ! A84   A(53,39,54)           120.2217         D2E/DX2 =    0.0825             !
 ! A85   A(30,41,53)           120.5181         D2E/DX2 =    0.0821             !
 ! A86   A(30,41,55)           119.3182         D2E/DX2 =    0.0826             !
 ! A87   A(53,41,55)           120.1631         D2E/DX2 =    0.0824             !
 ! A88   A(31,43,33)           120.7574         D2E/DX2 =    0.0866             !
 ! A89   A(31,43,56)           119.7287         D2E/DX2 =    0.1594             !
 ! A90   A(33,43,56)           119.5122         D2E/DX2 =    0.1596             !
 ! A91   A(35,50,37)           119.2327         D2E/DX2 =    0.0824             !
 ! A92   A(35,50,57)           120.3463         D2E/DX2 =    0.0819             !
 ! A93   A(37,50,57)           120.4209         D2E/DX2 =    0.0819             !
 ! A94   A(39,53,41)           119.6812         D2E/DX2 =    0.0827             !
 ! A95   A(39,53,58)           120.1381         D2E/DX2 =    0.0824             !
 ! A96   A(41,53,58)           120.1769         D2E/DX2 =    0.0824             !
 ! A97   A(43,56,59)           117.3016         D2E/DX2 =    0.2281             !
 ! A98   A(43,56,60)           117.518          D2E/DX2 =    0.2268             !
 ! A99   A(59,56,60)           125.1803         D2E/DX2 =    0.2546             !
 ! A100  L(1,19,20,18,-1)      178.5663         D2E/DX2 =    0.0881             !
 ! A101  L(1,19,20,18,-2)      192.9248         D2E/DX2 =    0.3346             !
 ! D1    D(3,1,2,5)             34.3038         D2E/DX2 =    0.0114             !
 ! D2    D(3,1,2,6)           -146.2984         D2E/DX2 =    0.0119             !
 ! D3    D(4,1,2,5)            174.6336         D2E/DX2 =    0.0076             !
 ! D4    D(4,1,2,6)             -5.9686         D2E/DX2 =    0.0078             !
 ! D5    D(19,1,2,5)           -74.4935         D2E/DX2 =    0.0172             !
 ! D6    D(19,1,2,6)           104.9043         D2E/DX2 =    0.0202             !
 ! D7    D(2,1,3,7)            -23.0998         D2E/DX2 =    0.0099             !
 ! D8    D(2,1,3,8)            158.3511         D2E/DX2 =    0.0111             !
 ! D9    D(4,1,3,7)           -163.5629         D2E/DX2 =    0.0084             !
 ! D10   D(4,1,3,8)             17.8879         D2E/DX2 =    0.0085             !
 ! D11   D(19,1,3,7)            86.9655         D2E/DX2 =    0.0167             !
 ! D12   D(19,1,3,8)           -91.5837         D2E/DX2 =    0.0209             !
 ! D13   D(2,1,20,21)          109.7985         D2E/DX2 =    0.0293             !
 ! D14   D(2,1,20,22)          -94.8115         D2E/DX2 =    0.0258             !
 ! D15   D(3,1,20,21)           -8.8854         D2E/DX2 =    0.0211             !
 ! D16   D(3,1,20,22)          146.5046         D2E/DX2 =    0.0329             !
 ! D17   D(4,1,20,21)         -127.6272         D2E/DX2 =    0.0189             !
 ! D18   D(4,1,20,22)           27.7629         D2E/DX2 =    0.0145             !
 ! D19   D(1,2,6,9)           -179.1547         D2E/DX2 =    0.0117             !
 ! D20   D(1,2,6,10)             2.48           D2E/DX2 =    0.0108             !
 ! D21   D(5,2,6,9)              0.2298         D2E/DX2 =    0.0124             !
 ! D22   D(5,2,6,10)          -178.1355         D2E/DX2 =    0.0146             !
 ! D23   D(1,3,8,11)           179.659          D2E/DX2 =    0.0111             !
 ! D24   D(1,3,8,12)            -1.7182         D2E/DX2 =    0.0103             !
 ! D25   D(7,3,8,11)             1.1329         D2E/DX2 =    0.0119             !
 ! D26   D(7,3,8,12)           179.7557         D2E/DX2 =    0.0146             !
 ! D27   D(2,6,10,13)         -114.9835         D2E/DX2 =    0.0132             !
 ! D28   D(2,6,10,14)            5.701          D2E/DX2 =    0.0137             !
 ! D29   D(2,6,10,15)          127.0062         D2E/DX2 =    0.0134             !
 ! D30   D(9,6,10,13)           66.6348         D2E/DX2 =    0.0137             !
 ! D31   D(9,6,10,14)         -172.6807         D2E/DX2 =    0.0134             !
 ! D32   D(9,6,10,15)          -51.3755         D2E/DX2 =    0.0144             !
 ! D33   D(3,8,12,16)         -118.1844         D2E/DX2 =    0.0131             !
 ! D34   D(3,8,12,17)            3.3985         D2E/DX2 =    0.0142             !
 ! D35   D(3,8,12,18)          124.4833         D2E/DX2 =    0.0136             !
 ! D36   D(11,8,12,16)          60.4497         D2E/DX2 =    0.0139             !
 ! D37   D(11,8,12,17)        -177.9674         D2E/DX2 =    0.0138             !
 ! D38   D(11,8,12,18)         -56.8826         D2E/DX2 =    0.0138             !
 ! D39   D(19,20,21,23)        -65.6432         D2E/DX2 =    0.0336             !
 ! D40   D(19,20,21,24)        107.8324         D2E/DX2 =    0.03               !
 ! D41   D(22,20,21,23)        137.9987         D2E/DX2 =    0.0383             !
 ! D42   D(22,20,21,24)        -48.5257         D2E/DX2 =    0.0311             !
 ! D43   D(19,20,22,25)        173.5591         D2E/DX2 =    0.0198             !
 ! D44   D(19,20,22,26)         -4.0476         D2E/DX2 =    0.0185             !
 ! D45   D(21,20,22,25)        -33.9506         D2E/DX2 =    0.0332             !
 ! D46   D(21,20,22,26)        148.4428         D2E/DX2 =    0.0364             !
 ! D47   D(20,21,23,27)        151.3761         D2E/DX2 =    0.014              !
 ! D48   D(20,21,23,28)        -25.8489         D2E/DX2 =    0.0124             !
 ! D49   D(24,21,23,27)        -21.8364         D2E/DX2 =    0.0108             !
 ! D50   D(24,21,23,28)        160.9385         D2E/DX2 =    0.0132             !
 ! D51   D(20,21,24,29)        140.0225         D2E/DX2 =    0.013              !
 ! D52   D(20,21,24,30)        -36.92           D2E/DX2 =    0.0106             !
 ! D53   D(23,21,24,29)        -46.8896         D2E/DX2 =    0.0105             !
 ! D54   D(23,21,24,30)        136.1679         D2E/DX2 =    0.0094             !
 ! D55   D(20,22,25,31)       -177.3605         D2E/DX2 =    0.0089             !
 ! D56   D(20,22,25,32)         -4.1421         D2E/DX2 =    0.0106             !
 ! D57   D(26,22,25,31)          0.4004         D2E/DX2 =    0.0063             !
 ! D58   D(26,22,25,32)        173.6189         D2E/DX2 =    0.0113             !
 ! D59   D(20,22,26,33)        173.615          D2E/DX2 =    0.01               !
 ! D60   D(20,22,26,34)        -12.1417         D2E/DX2 =    0.0155             !
 ! D61   D(25,22,26,33)         -4.3094         D2E/DX2 =    0.0061             !
 ! D62   D(25,22,26,34)        169.9339         D2E/DX2 =    0.0125             !
 ! D63   D(21,23,27,35)       -177.5008         D2E/DX2 =    0.0082             !
 ! D64   D(21,23,27,36)          0.7178         D2E/DX2 =    0.0086             !
 ! D65   D(28,23,27,35)         -0.286          D2E/DX2 =    0.0076             !
 ! D66   D(28,23,27,36)        177.9326         D2E/DX2 =    0.0078             !
 ! D67   D(21,23,28,37)        176.939          D2E/DX2 =    0.0082             !
 ! D68   D(21,23,28,38)         -3.4159         D2E/DX2 =    0.0087             !
 ! D69   D(27,23,28,37)         -0.304          D2E/DX2 =    0.0075             !
 ! D70   D(27,23,28,38)        179.3411         D2E/DX2 =    0.0076             !
 ! D71   D(21,24,29,39)       -178.3807         D2E/DX2 =    0.0081             !
 ! D72   D(21,24,29,40)          0.4056         D2E/DX2 =    0.0088             !
 ! D73   D(30,24,29,39)         -1.4665         D2E/DX2 =    0.0079             !
 ! D74   D(30,24,29,40)        177.3198         D2E/DX2 =    0.0081             !
 ! D75   D(21,24,30,41)        177.7477         D2E/DX2 =    0.008              !
 ! D76   D(21,24,30,42)         -1.9714         D2E/DX2 =    0.0089             !
 ! D77   D(29,24,30,41)          0.8367         D2E/DX2 =    0.0078             !
 ! D78   D(29,24,30,42)       -178.8824         D2E/DX2 =    0.0081             !
 ! D79   D(22,25,31,43)          2.783          D2E/DX2 =    0.0075             !
 ! D80   D(22,25,31,44)       -179.6188         D2E/DX2 =    0.0075             !
 ! D81   D(32,25,31,43)       -170.9844         D2E/DX2 =    0.0094             !
 ! D82   D(32,25,31,44)          6.6137         D2E/DX2 =    0.0093             !
 ! D83   D(22,25,32,45)        -37.5325         D2E/DX2 =    0.0394             !
 ! D84   D(22,25,32,46)        145.9108         D2E/DX2 =    0.0356             !
 ! D85   D(31,25,32,45)        136.2972         D2E/DX2 =    0.0407             !
 ! D86   D(31,25,32,46)        -40.2595         D2E/DX2 =    0.0359             !
 ! D87   D(22,26,33,43)          4.8182         D2E/DX2 =    0.0075             !
 ! D88   D(22,26,33,47)       -178.1473         D2E/DX2 =    0.0073             !
 ! D89   D(34,26,33,43)       -169.7472         D2E/DX2 =    0.0111             !
 ! D90   D(34,26,33,47)          7.2873         D2E/DX2 =    0.01               !
 ! D91   D(22,26,34,48)        126.0264         D2E/DX2 =    0.0329             !
 ! D92   D(22,26,34,49)        -57.9268         D2E/DX2 =    0.0417             !
 ! D93   D(33,26,34,48)        -59.1313         D2E/DX2 =    0.0329             !
 ! D94   D(33,26,34,49)        116.9155         D2E/DX2 =    0.0453             !
 ! D95   D(23,27,35,50)          0.6516         D2E/DX2 =    0.0092             !
 ! D96   D(23,27,35,51)        179.6658         D2E/DX2 =    0.0087             !
 ! D97   D(36,27,35,50)       -177.5638         D2E/DX2 =    0.0087             !
 ! D98   D(36,27,35,51)          1.4504         D2E/DX2 =    0.0094             !
 ! D99   D(23,28,37,50)          0.5398         D2E/DX2 =    0.0091             !
 ! D100  D(23,28,37,52)        179.8311         D2E/DX2 =    0.0086             !
 ! D101  D(38,28,37,50)       -179.0993         D2E/DX2 =    0.0086             !
 ! D102  D(38,28,37,52)          0.192          D2E/DX2 =    0.0093             !
 ! D103  D(24,29,39,53)          0.9895         D2E/DX2 =    0.0092             !
 ! D104  D(24,29,39,54)        179.5646         D2E/DX2 =    0.0087             !
 ! D105  D(40,29,39,53)       -177.7822         D2E/DX2 =    0.0088             !
 ! D106  D(40,29,39,54)          0.7929         D2E/DX2 =    0.0095             !
 ! D107  D(24,30,41,53)          0.2763         D2E/DX2 =    0.0092             !
 ! D108  D(24,30,41,55)        179.9833         D2E/DX2 =    0.0087             !
 ! D109  D(42,30,41,53)        179.9914         D2E/DX2 =    0.0089             !
 ! D110  D(42,30,41,55)         -0.3016         D2E/DX2 =    0.0096             !
 ! D111  D(25,31,43,33)         -2.3913         D2E/DX2 =    0.0076             !
 ! D112  D(25,31,43,56)        178.0951         D2E/DX2 =    0.0076             !
 ! D113  D(44,31,43,33)       -179.969          D2E/DX2 =    0.0075             !
 ! D114  D(44,31,43,56)          0.5174         D2E/DX2 =    0.008              !
 ! D115  D(26,33,43,31)         -1.2048         D2E/DX2 =    0.0075             !
 ! D116  D(26,33,43,56)        178.3098         D2E/DX2 =    0.0074             !
 ! D117  D(47,33,43,31)       -178.2383         D2E/DX2 =    0.0076             !
 ! D118  D(47,33,43,56)          1.2763         D2E/DX2 =    0.0079             !
 ! D119  D(27,35,50,37)         -0.4198         D2E/DX2 =    0.0095             !
 ! D120  D(27,35,50,57)        179.6282         D2E/DX2 =    0.0087             !
 ! D121  D(51,35,50,37)       -179.4247         D2E/DX2 =    0.0086             !
 ! D122  D(51,35,50,57)          0.6233         D2E/DX2 =    0.0092             !
 ! D123  D(28,37,50,35)         -0.1807         D2E/DX2 =    0.0094             !
 ! D124  D(28,37,50,57)        179.7712         D2E/DX2 =    0.0087             !
 ! D125  D(52,37,50,35)       -179.4652         D2E/DX2 =    0.0087             !
 ! D126  D(52,37,50,57)          0.4867         D2E/DX2 =    0.0093             !
 ! D127  D(29,39,53,41)          0.1054         D2E/DX2 =    0.0094             !
 ! D128  D(29,39,53,58)        179.3958         D2E/DX2 =    0.0088             !
 ! D129  D(54,39,53,41)       -178.4569         D2E/DX2 =    0.0087             !
 ! D130  D(54,39,53,58)          0.8335         D2E/DX2 =    0.0094             !
 ! D131  D(30,41,53,39)         -0.7457         D2E/DX2 =    0.0095             !
 ! D132  D(30,41,53,58)        179.9642         D2E/DX2 =    0.0088             !
 ! D133  D(55,41,53,39)        179.5498         D2E/DX2 =    0.0087             !
 ! D134  D(55,41,53,58)          0.2597         D2E/DX2 =    0.0094             !
 ! D135  D(31,43,56,59)       -179.5417         D2E/DX2 =    0.0334             !
 ! D136  D(31,43,56,60)          0.4572         D2E/DX2 =    0.0323             !
 ! D137  D(33,43,56,59)          0.9386         D2E/DX2 =    0.0327             !
 ! D138  D(33,43,56,60)       -179.0625         D2E/DX2 =    0.0331             !
 --------------------------------------------------------------------------------
 Trust Radius=4.00D-02 FncErr=1.00D-07 GrdErr=1.00D-06 EigMax=2.50D+02 EigMin=1.00D-04
 Number of steps in this run=    311 maximum allowed number of steps=    360.
 Search for a saddle point of order  1.
 GradGradGradGradGradGradGradGradGradGradGradGradGradGradGradGradGradGrad

 Stoichiometry    C25H24N5O6(2)
 Framework group  C1[X(C25H24N5O6)]
 Deg. of freedom   174
 Full point group                 C1      NOp   1
 Largest Abelian subgroup         C1      NOp   1
 Largest concise Abelian subgroup C1      NOp   1
                         Standard orientation:                         
 ---------------------------------------------------------------------
 Center     Atomic      Atomic             Coordinates (Angstroms)
 Number     Number       Type             X           Y           Z
 ---------------------------------------------------------------------
      1          6           0        1.935008    2.284532    0.371913
      2          6           0        2.211633    2.917323   -0.925907
      3          6           0        2.988611    1.429037    0.922935
      4          1           0        1.416200    2.906127    1.096271
      5          1           0        2.809589    2.322995   -1.611366
      6          6           0        1.798014    4.127496   -1.345092
      7          1           0        3.689067    1.021271    0.199303
      8          6           0        3.156935    1.080239    2.216045
      9          1           0        2.091575    4.422697   -2.348389
     10          6           0        1.003512    5.141699   -0.580965
     11          1           0        3.996370    0.428969    2.441967
     12          6           0        2.332503    1.511750    3.388583
     13          1           0        0.023410    5.288502   -1.042237
     14          1           0        0.839413    4.860371    0.456846
     15          1           0        1.518457    6.105579   -0.602686
     16          1           0        2.952418    2.067814    4.097853
     17          1           0        1.485289    2.132839    3.105490
     18          1           0        1.951358    0.636523    3.922995
     19          1           0        1.020085    1.373769    0.063256
     20          7           0        0.301950    0.239208   -0.318563
     21          7           0        1.048811   -0.867122   -0.127932
     22          6           0       -1.048260    0.138067   -0.344390
     23          6           0        2.207634   -1.011120   -0.918938
     24          6           0        0.721852   -1.753759    0.939230
     25          6           0       -1.816668   -0.956452   -0.847710
     26          6           0       -1.858438    1.211699    0.117951
     27          6           0        3.311613   -1.728652   -0.439984
     28          6           0        2.272812   -0.383045   -2.165512
     29          6           0        0.803411   -3.133283    0.739438
     30          6           0        0.262422   -1.237021    2.151818
     31          6           0       -3.199209   -0.963710   -0.887509
     32          7           0       -1.204676   -2.115731   -1.502440
     33          6           0       -3.230080    1.266782    0.022386
     34          7           0       -1.264380    2.323154    0.867097
     35          6           0        4.462799   -1.815725   -1.211532
     36          1           0        3.276051   -2.187687    0.538866
     37          6           0        3.437567   -0.469572   -2.920473
     38          1           0        1.412283    0.158957   -2.530792
     39          6           0        0.451019   -3.994957    1.772523
     40          1           0        1.120624   -3.518659   -0.222212
     41          6           0       -0.099086   -2.111178    3.171545
     42          1           0        0.188403   -0.165203    2.283287
     43          6           0       -3.898171    0.157277   -0.475308
     44          1           0       -3.721331   -1.827016   -1.275461
     45          8           0       -0.245542   -1.911660   -2.221121
     46          8           0       -1.735386   -3.196954   -1.335001
     47          1           0       -3.775834    2.132882    0.371374
     48          8           0       -1.464989    3.447597    0.458171
     49          8           0       -0.669718    2.046506    1.893661
     50          6           0        4.537560   -1.184897   -2.453637
     51          1           0        5.312881   -2.367905   -0.830597
     52          1           0        3.477192    0.018342   -3.886556
     53          6           0        0.000360   -3.489591    2.990590
     54          1           0        0.507977   -5.064280    1.613826
     55          1           0       -0.455270   -1.710146    4.112403
     56          7           0       -5.350453    0.171039   -0.553887
     57          1           0        5.439960   -1.251691   -3.047405
     58          1           0       -0.281939   -4.164834    3.788102
     59          8           0       -5.920111    1.183139   -0.187516
     60          8           0       -5.899891   -0.827589   -0.979699
 ---------------------------------------------------------------------
 Rotational constants (GHZ):           0.1406941           0.1022751           0.0832219
 Standard basis: 6-31+G(d,p) (6D, 7F)
 There are   804 symmetry adapted cartesian basis functions of A   symmetry.
 There are   804 symmetry adapted basis functions of A   symmetry.
   804 basis functions,  1320 primitive gaussians,   804 cartesian basis functions
   129 alpha electrons      128 beta electrons
       nuclear repulsion energy      4121.1942410520 Hartrees.
 NAtoms=   60 NActive=   60 NUniq=   60 SFac= 1.00D+00 NAtFMM=   60 NAOKFM=T Big=T
 Integral buffers will be    131072 words long.
 Raffenetti 2 integral format.
 Two-electron integral symmetry is turned on.
 ------------------------------------------------------------------------------
 Polarizable Continuum Model (PCM)
 =================================
 Model                : PCM.
 Atomic radii         : SMD-Coulomb.
 Polarization charges : Total charges.
 Charge compensation  : None.
 Solution method      : On-the-fly selection.
 Cavity type          : VdW (van der Waals Surface) (Alpha=1.000).
 Cavity algorithm     : GePol (No added spheres)
                        Default sphere list used, NSphG=   60.
                        Lebedev-Laikov grids with approx.  5.0 points / Ang**2.
                        Smoothing algorithm: York/Karplus (Gamma=1.0000).
                        Polarization charges: spherical gaussians, with
                                              point-specific exponents (IZeta= 3).
                        Self-potential: point-specific (ISelfS= 7).
                        Self-field    : sphere-specific E.n sum rule (ISelfD= 2).
 1st derivatives      : Analytical E(r).r(x)/FMM algorithm (CHGder, D1EAlg=3).
                        Cavity 1st derivative terms included.
 Solvent              : Ethanol, Eps=  24.852000 Eps(inf)=   1.852593
 ------------------------------------------------------------------------------
 ------------------------------------------------------------------------------
 Atomic radii for non-electrostatic terms: SMD-CDS.
 ------------------------------------------------------------------------------
 Nuclear repulsion after PCM non-electrostatic terms =     4121.2016214137 Hartrees.
 One-electron integrals computed using PRISM.
 NBasis=   804 RedAO= T EigKep=  1.12D-06  NBF=   804
 NBsUse=   798 1.00D-06 EigRej=  8.75D-07 NBFU=   798
 Initial guess from the checkpoint file:  "TSDPPHbisFG.chk"
 B after Tr=     0.000000   -0.000000   -0.000000
         Rot=    1.000000   -0.000000   -0.000000    0.000000 Ang=   0.00 deg.
 Initial guess <Sx>= 0.0000 <Sy>= 0.0000 <Sz>= 0.5000 <S**2>= 0.7749 S= 0.5124
 Requested convergence on RMS density matrix=1.00D-08 within  32 cycles.
 Requested convergence on MAX density matrix=1.00D-06.
 Requested convergence on             energy=1.00D-06.
 No special actions if energy rises.
 Inv3:  Mode=1 IEnd=    56480763.
 Iteration    1 A*A^-1 deviation from unit magnitude is 5.77D-15 for   4323.
 Iteration    1 A*A^-1 deviation from orthogonality  is 4.57D-15 for   4303   1371.
 Iteration    1 A^-1*A deviation from unit magnitude is 6.00D-15 for   4323.
 Iteration    1 A^-1*A deviation from orthogonality  is 4.58D-14 for   4126   4108.
 Restarting incremental Fock formation.
 Error on total polarization charges =  0.07149
 SCF Done:  E(UM052X) =  -1691.68076887     A.U. after   24 cycles
            NFock= 24  Conv=0.27D-08     -V/T= 2.0090
 <Sx>= 0.0000 <Sy>= 0.0000 <Sz>= 0.5000 <S**2>= 0.7748 S= 0.5123
 <L.S>= 0.000000000000E+00
 SMD-CDS (non-electrostatic) energy       (kcal/mol) =       4.63
 (included in total energy above)
 Annihilation of the first spin contaminant:
 S**2 before annihilation     0.7748,   after     0.7505
 QCSCF skips out because SCF is already converged.

 **********************************************************************

            Population analysis using the SCF density.

 **********************************************************************

 Orbital symmetries:
 Alpha Orbitals:
       Occupied  (A) (A) (A) (A) (A) (A) (A) (A) (A) (A) (A) (A)
                 (A) (A) (A) (A) (A) (A) (A) (A) (A) (A) (A) (A)
                 (A) (A) (A) (A) (A) (A) (A) (A) (A) (A) (A) (A)
                 (A) (A) (A) (A) (A) (A) (A) (A) (A) (A) (A) (A)
                 (A) (A) (A) (A) (A) (A) (A) (A) (A) (A) (A) (A)
                 (A) (A) (A) (A) (A) (A) (A) (A) (A) (A) (A) (A)
                 (A) (A) (A) (A) (A) (A) (A) (A) (A) (A) (A) (A)
                 (A) (A) (A) (A) (A) (A) (A) (A) (A) (A) (A) (A)
                 (A) (A) (A) (A) (A) (A) (A) (A) (A) (A) (A) (A)
                 (A) (A) (A) (A) (A) (A) (A) (A) (A) (A) (A) (A)
                 (A) (A) (A) (A) (A) (A) (A) (A) (A)
       Virtual   (A) (A) (A) (A) (A) (A) (A) (A) (A) (A) (A) (A)
                 (A) (A) (A) (A) (A) (A) (A) (A) (A) (A) (A) (A)
                 (A) (A) (A) (A) (A) (A) (A) (A) (A) (A) (A) (A)
                 (A) (A) (A) (A) (A) (A) (A) (A) (A) (A) (A) (A)
                 (A) (A) (A) (A) (A) (A) (A) (A) (A) (A) (A) (A)
                 (A) (A) (A) (A) (A) (A) (A) (A) (A) (A) (A) (A)
                 (A) (A) (A) (A) (A) (A) (A) (A) (A) (A) (A) (A)
                 (A) (A) (A) (A) (A) (A) (A) (A) (A) (A) (A) (A)
                 (A) (A) (A) (A) (A) (A) (A) (A) (A) (A) (A) (A)
                 (A) (A) (A) (A) (A) (A) (A) (A) (A) (A) (A) (A)
                 (A) (A) (A) (A) (A) (A) (A) (A) (A) (A) (A) (A)
                 (A) (A) (A) (A) (A) (A) (A) (A) (A) (A) (A) (A)
                 (A) (A) (A) (A) (A) (A) (A) (A) (A) (A) (A) (A)
                 (A) (A) (A) (A) (A) (A) (A) (A) (A) (A) (A) (A)
                 (A) (A) (A) (A) (A) (A) (A) (A) (A) (A) (A) (A)
                 (A) (A) (A) (A) (A) (A) (A) (A) (A) (A) (A) (A)
                 (A) (A) (A) (A) (A) (A) (A) (A) (A) (A) (A) (A)
                 (A) (A) (A) (A) (A) (A) (A) (A) (A) (A) (A) (A)
                 (A) (A) (A) (A) (A) (A) (A) (A) (A) (A) (A) (A)
                 (A) (A) (A) (A) (A) (A) (A) (A) (A) (A) (A) (A)
                 (A) (A) (A) (A) (A) (A) (A) (A) (A) (A) (A) (A)
                 (A) (A) (A) (A) (A) (A) (A) (A) (A) (A) (A) (A)
                 (A) (A) (A) (A) (A) (A) (A) (A) (A) (A) (A) (A)
                 (A) (A) (A) (A) (A) (A) (A) (A) (A) (A) (A) (A)
                 (A) (A) (A) (A) (A) (A) (A) (A) (A) (A) (A) (A)
                 (A) (A) (A) (A) (A) (A) (A) (A) (A) (A) (A) (A)
                 (A) (A) (A) (A) (A) (A) (A) (A) (A) (A) (A) (A)
                 (A) (A) (A) (A) (A) (A) (A) (A) (A) (A) (A) (A)
                 (A) (A) (A) (A) (A) (A) (A) (A) (A) (A) (A) (A)
                 (A) (A) (A) (A) (A) (A) (A) (A) (A) (A) (A) (A)
                 (A) (A) (A) (A) (A) (A) (A) (A) (A) (A) (A) (A)
                 (A) (A) (A) (A) (A) (A) (A) (A) (A) (A) (A) (A)
                 (A) (A) (A) (A) (A) (A) (A) (A) (A) (A) (A) (A)
                 (A) (A) (A) (A) (A) (A) (A) (A) (A) (A) (A) (A)
                 (A) (A) (A) (A) (A) (A) (A) (A) (A) (A) (A) (A)
                 (A) (A) (A) (A) (A) (A) (A) (A) (A) (A) (A) (A)
                 (A) (A) (A) (A) (A) (A) (A) (A) (A) (A) (A) (A)
                 (A) (A) (A) (A) (A) (A) (A) (A) (A) (A) (A) (A)
                 (A) (A) (A) (A) (A) (A) (A) (A) (A) (A) (A) (A)
                 (A) (A) (A) (A) (A) (A) (A) (A) (A) (A) (A) (A)
                 (A) (A) (A) (A) (A) (A) (A) (A) (A) (A) (A) (A)
                 (A) (A) (A) (A) (A) (A) (A) (A) (A) (A) (A) (A)
                 (A) (A) (A) (A) (A) (A) (A) (A) (A) (A) (A) (A)
                 (A) (A) (A) (A) (A) (A) (A) (A) (A) (A) (A) (A)
                 (A) (A) (A) (A) (A) (A) (A) (A) (A) (A) (A) (A)
                 (A) (A) (A) (A) (A) (A) (A) (A) (A) (A) (A) (A)
                 (A) (A) (A) (A) (A) (A) (A) (A) (A) (A) (A) (A)
                 (A) (A) (A) (A) (A) (A) (A) (A) (A) (A) (A) (A)
                 (A) (A) (A) (A) (A) (A) (A) (A) (A) (A) (A) (A)
                 (A) (A) (A) (A) (A) (A) (A) (A) (A) (A) (A) (A)
                 (A) (A) (A) (A) (A) (A) (A) (A) (A) (A) (A) (A)
                 (A) (A) (A) (A) (A) (A) (A) (A) (A) (A) (A) (A)
                 (A) (A) (A) (A) (A) (A) (A) (A) (A) (A) (A) (A)
                 (A) (A) (A) (A) (A) (A) (A) (A) (A) (A) (A) (A)
                 (A) (A) (A) (A) (A) (A) (A) (A) (A) (A) (A) (A)
                 (A) (A) (A) (A) (A) (A) (A) (A) (A)
 Beta  Orbitals:
       Occupied  (A) (A) (A) (A) (A) (A) (A) (A) (A) (A) (A) (A)
                 (A) (A) (A) (A) (A) (A) (A) (A) (A) (A) (A) (A)
                 (A) (A) (A) (A) (A) (A) (A) (A) (A) (A) (A) (A)
                 (A) (A) (A) (A) (A) (A) (A) (A) (A) (A) (A) (A)
                 (A) (A) (A) (A) (A) (A) (A) (A) (A) (A) (A) (A)
                 (A) (A) (A) (A) (A) (A) (A) (A) (A) (A) (A) (A)
                 (A) (A) (A) (A) (A) (A) (A) (A) (A) (A) (A) (A)
                 (A) (A) (A) (A) (A) (A) (A) (A) (A) (A) (A) (A)
                 (A) (A) (A) (A) (A) (A) (A) (A) (A) (A) (A) (A)
                 (A) (A) (A) (A) (A) (A) (A) (A) (A) (A) (A) (A)
                 (A) (A) (A) (A) (A) (A) (A) (A)
       Virtual   (A) (A) (A) (A) (A) (A) (A) (A) (A) (A) (A) (A)
                 (A) (A) (A) (A) (A) (A) (A) (A) (A) (A) (A) (A)
                 (A) (A) (A) (A) (A) (A) (A) (A) (A) (A) (A) (A)
                 (A) (A) (A) (A) (A) (A) (A) (A) (A) (A) (A) (A)
                 (A) (A) (A) (A) (A) (A) (A) (A) (A) (A) (A) (A)
                 (A) (A) (A) (A) (A) (A) (A) (A) (A) (A) (A) (A)
                 (A) (A) (A) (A) (A) (A) (A) (A) (A) (A) (A) (A)
                 (A) (A) (A) (A) (A) (A) (A) (A) (A) (A) (A) (A)
                 (A) (A) (A) (A) (A) (A) (A) (A) (A) (A) (A) (A)
                 (A) (A) (A) (A) (A) (A) (A) (A) (A) (A) (A) (A)
                 (A) (A) (A) (A) (A) (A) (A) (A) (A) (A) (A) (A)
                 (A) (A) (A) (A) (A) (A) (A) (A) (A) (A) (A) (A)
                 (A) (A) (A) (A) (A) (A) (A) (A) (A) (A) (A) (A)
                 (A) (A) (A) (A) (A) (A) (A) (A) (A) (A) (A) (A)
                 (A) (A) (A) (A) (A) (A) (A) (A) (A) (A) (A) (A)
                 (A) (A) (A) (A) (A) (A) (A) (A) (A) (A) (A) (A)
                 (A) (A) (A) (A) (A) (A) (A) (A) (A) (A) (A) (A)
                 (A) (A) (A) (A) (A) (A) (A) (A) (A) (A) (A) (A)
                 (A) (A) (A) (A) (A) (A) (A) (A) (A) (A) (A) (A)
                 (A) (A) (A) (A) (A) (A) (A) (A) (A) (A) (A) (A)
                 (A) (A) (A) (A) (A) (A) (A) (A) (A) (A) (A) (A)
                 (A) (A) (A) (A) (A) (A) (A) (A) (A) (A) (A) (A)
                 (A) (A) (A) (A) (A) (A) (A) (A) (A) (A) (A) (A)
                 (A) (A) (A) (A) (A) (A) (A) (A) (A) (A) (A) (A)
                 (A) (A) (A) (A) (A) (A) (A) (A) (A) (A) (A) (A)
                 (A) (A) (A) (A) (A) (A) (A) (A) (A) (A) (A) (A)
                 (A) (A) (A) (A) (A) (A) (A) (A) (A) (A) (A) (A)
                 (A) (A) (A) (A) (A) (A) (A) (A) (A) (A) (A) (A)
                 (A) (A) (A) (A) (A) (A) (A) (A) (A) (A) (A) (A)
                 (A) (A) (A) (A) (A) (A) (A) (A) (A) (A) (A) (A)
                 (A) (A) (A) (A) (A) (A) (A) (A) (A) (A) (A) (A)
                 (A) (A) (A) (A) (A) (A) (A) (A) (A) (A) (A) (A)
                 (A) (A) (A) (A) (A) (A) (A) (A) (A) (A) (A) (A)
                 (A) (A) (A) (A) (A) (A) (A) (A) (A) (A) (A) (A)
                 (A) (A) (A) (A) (A) (A) (A) (A) (A) (A) (A) (A)
                 (A) (A) (A) (A) (A) (A) (A) (A) (A) (A) (A) (A)
                 (A) (A) (A) (A) (A) (A) (A) (A) (A) (A) (A) (A)
                 (A) (A) (A) (A) (A) (A) (A) (A) (A) (A) (A) (A)
                 (A) (A) (A) (A) (A) (A) (A) (A) (A) (A) (A) (A)
                 (A) (A) (A) (A) (A) (A) (A) (A) (A) (A) (A) (A)
                 (A) (A) (A) (A) (A) (A) (A) (A) (A) (A) (A) (A)
                 (A) (A) (A) (A) (A) (A) (A) (A) (A) (A) (A) (A)
                 (A) (A) (A) (A) (A) (A) (A) (A) (A) (A) (A) (A)
                 (A) (A) (A) (A) (A) (A) (A) (A) (A) (A) (A) (A)
                 (A) (A) (A) (A) (A) (A) (A) (A) (A) (A) (A) (A)
                 (A) (A) (A) (A) (A) (A) (A) (A) (A) (A) (A) (A)
                 (A) (A) (A) (A) (A) (A) (A) (A) (A) (A) (A) (A)
                 (A) (A) (A) (A) (A) (A) (A) (A) (A) (A) (A) (A)
                 (A) (A) (A) (A) (A) (A) (A) (A) (A) (A) (A) (A)
                 (A) (A) (A) (A) (A) (A) (A) (A) (A) (A) (A) (A)
                 (A) (A) (A) (A) (A) (A) (A) (A) (A) (A) (A) (A)
                 (A) (A) (A) (A) (A) (A) (A) (A) (A) (A) (A) (A)
                 (A) (A) (A) (A) (A) (A) (A) (A) (A) (A) (A) (A)
                 (A) (A) (A) (A) (A) (A) (A) (A) (A) (A) (A) (A)
                 (A) (A) (A) (A) (A) (A) (A) (A) (A) (A) (A) (A)
                 (A) (A) (A) (A) (A) (A) (A) (A) (A) (A)
 The electronic state is 2-A.
 Alpha  occ. eigenvalues --  -19.76244 -19.75930 -19.75572 -19.75332 -19.75053
 Alpha  occ. eigenvalues --  -19.75031 -15.08715 -15.08353 -15.08148 -14.90085
 Alpha  occ. eigenvalues --  -14.87933 -10.70104 -10.67602 -10.67452 -10.66324
 Alpha  occ. eigenvalues --  -10.64739 -10.64651 -10.63809 -10.63596 -10.59233
 Alpha  occ. eigenvalues --  -10.59084 -10.58981 -10.58970 -10.58811 -10.58755
 Alpha  occ. eigenvalues --  -10.58750 -10.58675 -10.58658 -10.58646 -10.58532
 Alpha  occ. eigenvalues --  -10.58458 -10.58232 -10.58191 -10.57904 -10.56140
 Alpha  occ. eigenvalues --  -10.55996  -1.41280  -1.40795  -1.40426  -1.22117
 Alpha  occ. eigenvalues --   -1.21730  -1.21329  -1.19116  -1.06567  -1.01333
 Alpha  occ. eigenvalues --   -0.98770  -0.97567  -0.96909  -0.94153  -0.93498
 Alpha  occ. eigenvalues --   -0.89930  -0.88036  -0.86736  -0.86002  -0.85596
 Alpha  occ. eigenvalues --   -0.84618  -0.84128  -0.83325  -0.79707  -0.78468
 Alpha  occ. eigenvalues --   -0.74734  -0.73708  -0.72741  -0.72128  -0.70928
 Alpha  occ. eigenvalues --   -0.70101  -0.69757  -0.68707  -0.67816  -0.66493
 Alpha  occ. eigenvalues --   -0.65814  -0.65054  -0.64720  -0.64698  -0.64290
 Alpha  occ. eigenvalues --   -0.63485  -0.63055  -0.62790  -0.62320  -0.61832
 Alpha  occ. eigenvalues --   -0.61252  -0.58684  -0.56949  -0.56848  -0.55333
 Alpha  occ. eigenvalues --   -0.54876  -0.54438  -0.53466  -0.53185  -0.52224
 Alpha  occ. eigenvalues --   -0.51744  -0.50791  -0.50284  -0.50185  -0.49938
 Alpha  occ. eigenvalues --   -0.48566  -0.48367  -0.48231  -0.47888  -0.47235
 Alpha  occ. eigenvalues --   -0.45925  -0.44436  -0.43981  -0.43930  -0.43258
 Alpha  occ. eigenvalues --   -0.43137  -0.43095  -0.42826  -0.42652  -0.41920
 Alpha  occ. eigenvalues --   -0.41723  -0.41401  -0.41325  -0.41243  -0.41135
 Alpha  occ. eigenvalues --   -0.40881  -0.40667  -0.40632  -0.40314  -0.39458
 Alpha  occ. eigenvalues --   -0.37542  -0.36209  -0.32663  -0.32330  -0.31807
 Alpha  occ. eigenvalues --   -0.31438  -0.31244  -0.26975  -0.24031
 Alpha virt. eigenvalues --   -0.07301  -0.06927  -0.05537   0.00041   0.00525
 Alpha virt. eigenvalues --    0.01227   0.02624   0.02893   0.03883   0.04490
 Alpha virt. eigenvalues --    0.04859   0.05301   0.05548   0.05674   0.06230
 Alpha virt. eigenvalues --    0.06677   0.06866   0.07306   0.07390   0.07654
 Alpha virt. eigenvalues --    0.08091   0.08439   0.08813   0.09094   0.09212
 Alpha virt. eigenvalues --    0.09489   0.09968   0.10242   0.10417   0.11121
 Alpha virt. eigenvalues --    0.11218   0.11703   0.12005   0.12203   0.12622
 Alpha virt. eigenvalues --    0.12907   0.13316   0.13656   0.13912   0.14197
 Alpha virt. eigenvalues --    0.14461   0.14911   0.15034   0.15125   0.15428
 Alpha virt. eigenvalues --    0.15513   0.15922   0.16137   0.16186   0.16547
 Alpha virt. eigenvalues --    0.16866   0.17227   0.17708   0.17861   0.17993
 Alpha virt. eigenvalues --    0.18203   0.18327   0.18552   0.18696   0.18781
 Alpha virt. eigenvalues --    0.19158   0.19471   0.19766   0.19808   0.20171
 Alpha virt. eigenvalues --    0.20506   0.20767   0.20859   0.21102   0.21428
 Alpha virt. eigenvalues --    0.21642   0.21817   0.21948   0.22154   0.22374
 Alpha virt. eigenvalues --    0.23040   0.23184   0.23349   0.23448   0.23635
 Alpha virt. eigenvalues --    0.23878   0.24106   0.24320   0.24444   0.24738
 Alpha virt. eigenvalues --    0.24937   0.25132   0.25276   0.25438   0.25558
 Alpha virt. eigenvalues --    0.26027   0.26227   0.26596   0.26647   0.26807
 Alpha virt. eigenvalues --    0.26969   0.27193   0.27460   0.27641   0.27874
 Alpha virt. eigenvalues --    0.28054   0.28219   0.28288   0.28619   0.28733
 Alpha virt. eigenvalues --    0.28925   0.29167   0.29481   0.29553   0.29693
 Alpha virt. eigenvalues --    0.29890   0.30044   0.30343   0.30499   0.30756
 Alpha virt. eigenvalues --    0.30929   0.31303   0.31374   0.31716   0.31920
 Alpha virt. eigenvalues --    0.32301   0.32462   0.32664   0.32954   0.33159
 Alpha virt. eigenvalues --    0.33229   0.33684   0.33788   0.34095   0.34406
 Alpha virt. eigenvalues --    0.34600   0.34734   0.34940   0.35194   0.35611
 Alpha virt. eigenvalues --    0.35673   0.35900   0.36087   0.36419   0.36441
 Alpha virt. eigenvalues --    0.36617   0.37160   0.37489   0.37631   0.37884
 Alpha virt. eigenvalues --    0.38263   0.38583   0.38711   0.38929   0.39282
 Alpha virt. eigenvalues --    0.39351   0.39538   0.39823   0.40197   0.40533
 Alpha virt. eigenvalues --    0.40583   0.40987   0.41304   0.41506   0.41643
 Alpha virt. eigenvalues --    0.42149   0.42204   0.42615   0.42787   0.43201
 Alpha virt. eigenvalues --    0.43336   0.43465   0.43753   0.44498   0.44796
 Alpha virt. eigenvalues --    0.45071   0.45249   0.45571   0.45813   0.46389
 Alpha virt. eigenvalues --    0.46601   0.46970   0.47290   0.47633   0.48009
 Alpha virt. eigenvalues --    0.48533   0.49004   0.49334   0.49675   0.50249
 Alpha virt. eigenvalues --    0.50491   0.50914   0.51273   0.51399   0.51596
 Alpha virt. eigenvalues --    0.52469   0.52759   0.52996   0.53942   0.54181
 Alpha virt. eigenvalues --    0.54874   0.55405   0.55703   0.56141   0.57009
 Alpha virt. eigenvalues --    0.57560   0.57999   0.58573   0.59844   0.59992
 Alpha virt. eigenvalues --    0.60842   0.61688   0.64087   0.65818   0.66465
 Alpha virt. eigenvalues --    0.67308   0.70242   0.70925   0.73116   0.74587
 Alpha virt. eigenvalues --    0.75192   0.75724   0.76003   0.76892   0.77732
 Alpha virt. eigenvalues --    0.78108   0.78483   0.78874   0.79562   0.80302
 Alpha virt. eigenvalues --    0.80499   0.81057   0.81279   0.81711   0.82171
 Alpha virt. eigenvalues --    0.82450   0.82693   0.83519   0.83842   0.84487
 Alpha virt. eigenvalues --    0.84987   0.85178   0.85620   0.86177   0.86290
 Alpha virt. eigenvalues --    0.86768   0.87498   0.88100   0.88414   0.88592
 Alpha virt. eigenvalues --    0.89354   0.89557   0.89937   0.90111   0.91549
 Alpha virt. eigenvalues --    0.92145   0.92640   0.93326   0.93842   0.94915
 Alpha virt. eigenvalues --    0.95099   0.95708   0.96319   0.96574   0.97454
 Alpha virt. eigenvalues --    0.97832   0.98024   0.98865   0.99230   0.99565
 Alpha virt. eigenvalues --    0.99903   1.00822   1.01148   1.01310   1.01886
 Alpha virt. eigenvalues --    1.02293   1.02903   1.02939   1.03387   1.03961
 Alpha virt. eigenvalues --    1.04247   1.05043   1.05667   1.05840   1.06908
 Alpha virt. eigenvalues --    1.06981   1.07401   1.08494   1.08844   1.09218
 Alpha virt. eigenvalues --    1.09659   1.10225   1.10648   1.11028   1.11351
 Alpha virt. eigenvalues --    1.11745   1.12460   1.13201   1.13620   1.14184
 Alpha virt. eigenvalues --    1.14797   1.15189   1.15786   1.17108   1.17303
 Alpha virt. eigenvalues --    1.17646   1.18674   1.18697   1.19344   1.19947
 Alpha virt. eigenvalues --    1.21410   1.21919   1.22474   1.22818   1.23703
 Alpha virt. eigenvalues --    1.23935   1.24819   1.24974   1.25704   1.25997
 Alpha virt. eigenvalues --    1.26177   1.26448   1.26783   1.27392   1.27964
 Alpha virt. eigenvalues --    1.28301   1.28512   1.29147   1.29706   1.30151
 Alpha virt. eigenvalues --    1.30610   1.31007   1.32153   1.32602   1.33074
 Alpha virt. eigenvalues --    1.33778   1.34478   1.34598   1.35051   1.35551
 Alpha virt. eigenvalues --    1.36026   1.36589   1.36640   1.37123   1.37335
 Alpha virt. eigenvalues --    1.37779   1.39055   1.39573   1.40194   1.40452
 Alpha virt. eigenvalues --    1.40598   1.41780   1.41969   1.42721   1.43214
 Alpha virt. eigenvalues --    1.44017   1.44550   1.44859   1.45398   1.46094
 Alpha virt. eigenvalues --    1.46330   1.46997   1.47046   1.47544   1.47876
 Alpha virt. eigenvalues --    1.48421   1.48658   1.49140   1.49351   1.49686
 Alpha virt. eigenvalues --    1.49941   1.50539   1.50901   1.51231   1.51441
 Alpha virt. eigenvalues --    1.52171   1.53052   1.53770   1.54224   1.55110
 Alpha virt. eigenvalues --    1.55137   1.55620   1.55862   1.56742   1.57486
 Alpha virt. eigenvalues --    1.58174   1.59021   1.59837   1.60451   1.61762
 Alpha virt. eigenvalues --    1.63041   1.64787   1.65330   1.67503   1.68481
 Alpha virt. eigenvalues --    1.70106   1.70909   1.71549   1.73132   1.74200
 Alpha virt. eigenvalues --    1.74782   1.75573   1.76892   1.77231   1.77418
 Alpha virt. eigenvalues --    1.78613   1.79734   1.79840   1.80968   1.81891
 Alpha virt. eigenvalues --    1.82208   1.84052   1.84370   1.85534   1.85576
 Alpha virt. eigenvalues --    1.85993   1.86973   1.87671   1.89554   1.89876
 Alpha virt. eigenvalues --    1.90256   1.91064   1.91560   1.91959   1.92613
 Alpha virt. eigenvalues --    1.93084   1.93351   1.93756   1.94749   1.95126
 Alpha virt. eigenvalues --    1.95386   1.95729   1.96013   1.96962   1.97183
 Alpha virt. eigenvalues --    1.97898   1.98681   1.99456   2.00829   2.01033
 Alpha virt. eigenvalues --    2.01359   2.01802   2.03127   2.03474   2.03970
 Alpha virt. eigenvalues --    2.04949   2.05721   2.05988   2.06464   2.06729
 Alpha virt. eigenvalues --    2.07351   2.07633   2.07997   2.08460   2.08914
 Alpha virt. eigenvalues --    2.09608   2.10236   2.10385   2.10833   2.10987
 Alpha virt. eigenvalues --    2.11698   2.12074   2.12714   2.12908   2.13827
 Alpha virt. eigenvalues --    2.14662   2.15585   2.15705   2.16053   2.16764
 Alpha virt. eigenvalues --    2.17092   2.18147   2.18408   2.19333   2.19578
 Alpha virt. eigenvalues --    2.20536   2.20633   2.21638   2.22145   2.22532
 Alpha virt. eigenvalues --    2.23402   2.23722   2.23933   2.24436   2.25386
 Alpha virt. eigenvalues --    2.26349   2.27109   2.28283   2.28819   2.29359
 Alpha virt. eigenvalues --    2.30966   2.32370   2.32801   2.34076   2.34681
 Alpha virt. eigenvalues --    2.36064   2.36603   2.37242   2.38221   2.38302
 Alpha virt. eigenvalues --    2.39605   2.40950   2.42267   2.43095   2.44821
 Alpha virt. eigenvalues --    2.45079   2.45320   2.45557   2.45951   2.46259
 Alpha virt. eigenvalues --    2.46780   2.47189   2.47639   2.48323   2.48497
 Alpha virt. eigenvalues --    2.49331   2.49499   2.50166   2.50865   2.50974
 Alpha virt. eigenvalues --    2.52066   2.52766   2.53297   2.54171   2.54693
 Alpha virt. eigenvalues --    2.55175   2.55600   2.55722   2.56718   2.57135
 Alpha virt. eigenvalues --    2.57633   2.58525   2.59250   2.60020   2.60641
 Alpha virt. eigenvalues --    2.61505   2.61941   2.62712   2.63335   2.64010
 Alpha virt. eigenvalues --    2.64752   2.64988   2.65346   2.65844   2.66634
 Alpha virt. eigenvalues --    2.66782   2.67580   2.68242   2.68413   2.69084
 Alpha virt. eigenvalues --    2.69571   2.69910   2.70317   2.70781   2.72499
 Alpha virt. eigenvalues --    2.72868   2.73589   2.74310   2.74785   2.75158
 Alpha virt. eigenvalues --    2.75845   2.76410   2.76951   2.77972   2.79231
 Alpha virt. eigenvalues --    2.79732   2.80274   2.80579   2.81368   2.81716
 Alpha virt. eigenvalues --    2.82920   2.83721   2.84116   2.85124   2.86185
 Alpha virt. eigenvalues --    2.87039   2.88374   2.90406   2.91233   2.91524
 Alpha virt. eigenvalues --    2.92017   2.93312   2.93690   2.94627   2.96183
 Alpha virt. eigenvalues --    2.98009   3.00264   3.01401   3.03487   3.04245
 Alpha virt. eigenvalues --    3.06115   3.07843   3.09076   3.09934   3.10230
 Alpha virt. eigenvalues --    3.11419   3.11850   3.14090   3.14509   3.14960
 Alpha virt. eigenvalues --    3.15720   3.16590   3.16676   3.19274   3.20154
 Alpha virt. eigenvalues --    3.21381   3.23312   3.24078   3.26815   3.27391
 Alpha virt. eigenvalues --    3.29221   3.31656   3.32943   3.33795   3.34274
 Alpha virt. eigenvalues --    3.36245   3.36949   3.37657   3.40022   3.41029
 Alpha virt. eigenvalues --    3.42804   3.45347   3.48450   3.50427   3.52920
 Alpha virt. eigenvalues --    3.53617   3.53837   3.55177   3.55971   3.57473
 Alpha virt. eigenvalues --    3.62072   3.63048   3.64894   3.67521   3.72511
 Alpha virt. eigenvalues --    3.74199   3.97858   3.99697   4.19853   4.30347
 Alpha virt. eigenvalues --    4.37044   4.38825   4.41352   4.43674   4.44645
 Alpha virt. eigenvalues --    4.46014   4.47086   4.48310   4.50368   4.51439
 Alpha virt. eigenvalues --    4.52459   4.53354   4.56131   4.58143   4.59291
 Alpha virt. eigenvalues --    4.60373   4.61720   4.63512   4.64822   4.65111
 Alpha virt. eigenvalues --    4.66715   4.68298   4.71829   4.75410   4.79092
 Alpha virt. eigenvalues --    4.81090   4.84218   4.86586   4.89061   4.91903
 Alpha virt. eigenvalues --    4.94198   4.96856   5.03011   5.06118
  Beta  occ. eigenvalues --  -19.76238 -19.75940 -19.75575 -19.75326 -19.75050
  Beta  occ. eigenvalues --  -19.75029 -15.08713 -15.08356 -15.08149 -14.89742
  Beta  occ. eigenvalues --  -14.87333 -10.70072 -10.67561 -10.67436 -10.66315
  Beta  occ. eigenvalues --  -10.64743 -10.64653 -10.63835 -10.63648 -10.59212
  Beta  occ. eigenvalues --  -10.59071 -10.58985 -10.58976 -10.58738 -10.58666
  Beta  occ. eigenvalues --  -10.58659 -10.58652 -10.58568 -10.58492 -10.58374
  Beta  occ. eigenvalues --  -10.58289 -10.58279 -10.58185 -10.57992 -10.56156
  Beta  occ. eigenvalues --  -10.56007  -1.41278  -1.40792  -1.40423  -1.22115
  Beta  occ. eigenvalues --   -1.21704  -1.21324  -1.18186  -1.06377  -1.00906
  Beta  occ. eigenvalues --   -0.98722  -0.97521  -0.96810  -0.93645  -0.93037
  Beta  occ. eigenvalues --   -0.89454  -0.87956  -0.86678  -0.85951  -0.85554
  Beta  occ. eigenvalues --   -0.84483  -0.83586  -0.83259  -0.79276  -0.78386
  Beta  occ. eigenvalues --   -0.74042  -0.73527  -0.72548  -0.71931  -0.70878
  Beta  occ. eigenvalues --   -0.70032  -0.69687  -0.68542  -0.67667  -0.66464
  Beta  occ. eigenvalues --   -0.65798  -0.64827  -0.64682  -0.64592  -0.64220
  Beta  occ. eigenvalues --   -0.63369  -0.62804  -0.62637  -0.62197  -0.61593
  Beta  occ. eigenvalues --   -0.60210  -0.58570  -0.56760  -0.56282  -0.55117
  Beta  occ. eigenvalues --   -0.54486  -0.54310  -0.53274  -0.53108  -0.51996
  Beta  occ. eigenvalues --   -0.51532  -0.50718  -0.50181  -0.49986  -0.49844
  Beta  occ. eigenvalues --   -0.48249  -0.47980  -0.47682  -0.47557  -0.46521
  Beta  occ. eigenvalues --   -0.45804  -0.44255  -0.43851  -0.43720  -0.43106
  Beta  occ. eigenvalues --   -0.43092  -0.42977  -0.42702  -0.42338  -0.41805
  Beta  occ. eigenvalues --   -0.41661  -0.41307  -0.41297  -0.41212  -0.41080
  Beta  occ. eigenvalues --   -0.40824  -0.40521  -0.40451  -0.39348  -0.39127
  Beta  occ. eigenvalues --   -0.36195  -0.35399  -0.32445  -0.32056  -0.31502
  Beta  occ. eigenvalues --   -0.30761  -0.30180  -0.24056
  Beta virt. eigenvalues --   -0.10693  -0.06989  -0.06884  -0.05512   0.00075
  Beta virt. eigenvalues --    0.00645   0.01324   0.02780   0.03001   0.03916
  Beta virt. eigenvalues --    0.04795   0.05175   0.05373   0.05679   0.06195
  Beta virt. eigenvalues --    0.06704   0.06823   0.07087   0.07466   0.07518
  Beta virt. eigenvalues --    0.07805   0.08126   0.08585   0.08853   0.09118
  Beta virt. eigenvalues --    0.09243   0.09509   0.10013   0.10316   0.10472
  Beta virt. eigenvalues --    0.11156   0.11269   0.11723   0.12036   0.12241
  Beta virt. eigenvalues --    0.12663   0.12941   0.13384   0.13712   0.13947
  Beta virt. eigenvalues --    0.14229   0.14541   0.14947   0.15071   0.15155
  Beta virt. eigenvalues --    0.15465   0.15565   0.15947   0.16179   0.16254
  Beta virt. eigenvalues --    0.16615   0.16913   0.17324   0.17775   0.17883
  Beta virt. eigenvalues --    0.18032   0.18270   0.18506   0.18562   0.18737
  Beta virt. eigenvalues --    0.18885   0.19228   0.19530   0.19842   0.19939
  Beta virt. eigenvalues --    0.20243   0.20573   0.20813   0.20916   0.21200
  Beta virt. eigenvalues --    0.21465   0.21758   0.21880   0.21998   0.22317
  Beta virt. eigenvalues --    0.22408   0.23098   0.23269   0.23401   0.23501
  Beta virt. eigenvalues --    0.23720   0.23952   0.24191   0.24365   0.24485
  Beta virt. eigenvalues --    0.24824   0.25027   0.25214   0.25343   0.25534
  Beta virt. eigenvalues --    0.25618   0.26087   0.26261   0.26667   0.26721
  Beta virt. eigenvalues --    0.26887   0.27064   0.27254   0.27512   0.27679
  Beta virt. eigenvalues --    0.27925   0.28140   0.28323   0.28332   0.28707
  Beta virt. eigenvalues --    0.28809   0.29014   0.29299   0.29556   0.29606
  Beta virt. eigenvalues --    0.29737   0.29943   0.30124   0.30393   0.30588
  Beta virt. eigenvalues --    0.30868   0.31134   0.31405   0.31454   0.31758
  Beta virt. eigenvalues --    0.31984   0.32413   0.32538   0.32739   0.33013
  Beta virt. eigenvalues --    0.33245   0.33334   0.33739   0.33863   0.34160
  Beta virt. eigenvalues --    0.34516   0.34716   0.34804   0.35046   0.35315
  Beta virt. eigenvalues --    0.35666   0.35768   0.35964   0.36186   0.36470
  Beta virt. eigenvalues --    0.36526   0.36676   0.37245   0.37537   0.37736
  Beta virt. eigenvalues --    0.37932   0.38359   0.38640   0.38830   0.39048
  Beta virt. eigenvalues --    0.39380   0.39408   0.39619   0.39927   0.40278
  Beta virt. eigenvalues --    0.40588   0.40673   0.41114   0.41355   0.41553
  Beta virt. eigenvalues --    0.41689   0.42176   0.42278   0.42668   0.42958
  Beta virt. eigenvalues --    0.43257   0.43398   0.43555   0.43850   0.44607
  Beta virt. eigenvalues --    0.44841   0.45142   0.45359   0.45688   0.45912
  Beta virt. eigenvalues --    0.46425   0.46664   0.47031   0.47338   0.47760
  Beta virt. eigenvalues --    0.48042   0.48557   0.49107   0.49417   0.49732
  Beta virt. eigenvalues --    0.50320   0.50576   0.50968   0.51289   0.51468
  Beta virt. eigenvalues --    0.51698   0.52531   0.52827   0.53095   0.54045
  Beta virt. eigenvalues --    0.54278   0.54957   0.55430   0.55748   0.56290
  Beta virt. eigenvalues --    0.57118   0.57623   0.58059   0.58641   0.59906
  Beta virt. eigenvalues --    0.60012   0.60884   0.61751   0.64197   0.65888
  Beta virt. eigenvalues --    0.66577   0.67433   0.70292   0.70971   0.73181
  Beta virt. eigenvalues --    0.74652   0.75238   0.75746   0.76060   0.76932
  Beta virt. eigenvalues --    0.77789   0.78181   0.78542   0.78941   0.79666
  Beta virt. eigenvalues --    0.80441   0.80672   0.81174   0.81638   0.81901
  Beta virt. eigenvalues --    0.82303   0.82497   0.83001   0.83826   0.83987
  Beta virt. eigenvalues --    0.84655   0.85174   0.85360   0.85734   0.86250
  Beta virt. eigenvalues --    0.86682   0.86896   0.87547   0.88179   0.88470
  Beta virt. eigenvalues --    0.88666   0.89515   0.89708   0.90213   0.90249
  Beta virt. eigenvalues --    0.91732   0.92246   0.92525   0.93467   0.93942
  Beta virt. eigenvalues --    0.95011   0.95318   0.95805   0.96407   0.96806
  Beta virt. eigenvalues --    0.97528   0.97900   0.98067   0.98957   0.99350
  Beta virt. eigenvalues --    0.99643   0.99955   1.00858   1.01189   1.01509
  Beta virt. eigenvalues --    1.01953   1.02394   1.02989   1.03023   1.03404
  Beta virt. eigenvalues --    1.04009   1.04293   1.05127   1.05712   1.05875
  Beta virt. eigenvalues --    1.07011   1.07120   1.07463   1.08559   1.08960
  Beta virt. eigenvalues --    1.09345   1.09784   1.10349   1.10716   1.11085
  Beta virt. eigenvalues --    1.11469   1.11814   1.12593   1.13337   1.13700
  Beta virt. eigenvalues --    1.14248   1.14805   1.15403   1.15944   1.17155
  Beta virt. eigenvalues --    1.17417   1.17754   1.18721   1.18782   1.19486
  Beta virt. eigenvalues --    1.20087   1.21453   1.22004   1.22518   1.22925
  Beta virt. eigenvalues --    1.23916   1.24036   1.24976   1.25082   1.25786
  Beta virt. eigenvalues --    1.26082   1.26255   1.26636   1.26926   1.27510
  Beta virt. eigenvalues --    1.28033   1.28338   1.28657   1.29232   1.29817
  Beta virt. eigenvalues --    1.30241   1.30683   1.31165   1.32245   1.32731
  Beta virt. eigenvalues --    1.33193   1.33903   1.34601   1.34656   1.35201
  Beta virt. eigenvalues --    1.35626   1.36178   1.36666   1.36681   1.37212
  Beta virt. eigenvalues --    1.37420   1.37898   1.39060   1.39647   1.40232
  Beta virt. eigenvalues --    1.40580   1.40767   1.41853   1.42037   1.42827
  Beta virt. eigenvalues --    1.43319   1.44115   1.44615   1.44891   1.45471
  Beta virt. eigenvalues --    1.46248   1.46412   1.47049   1.47075   1.47602
  Beta virt. eigenvalues --    1.48011   1.48514   1.48703   1.49320   1.49487
  Beta virt. eigenvalues --    1.49791   1.50028   1.50673   1.51106   1.51290
  Beta virt. eigenvalues --    1.51486   1.52290   1.53167   1.53886   1.54248
  Beta virt. eigenvalues --    1.55214   1.55278   1.55790   1.56074   1.56848
  Beta virt. eigenvalues --    1.57614   1.58325   1.59177   1.59994   1.60596
  Beta virt. eigenvalues --    1.61927   1.63232   1.64888   1.65460   1.67494
  Beta virt. eigenvalues --    1.68631   1.69931   1.70976   1.71572   1.73396
  Beta virt. eigenvalues --    1.74414   1.74832   1.75655   1.76979   1.77317
  Beta virt. eigenvalues --    1.77535   1.78683   1.79867   1.79887   1.81055
  Beta virt. eigenvalues --    1.82044   1.82444   1.84168   1.84452   1.85560
  Beta virt. eigenvalues --    1.85671   1.86095   1.87057   1.87820   1.89664
  Beta virt. eigenvalues --    1.90082   1.90386   1.91173   1.91839   1.92226
  Beta virt. eigenvalues --    1.92782   1.93197   1.93554   1.93872   1.94888
  Beta virt. eigenvalues --    1.95202   1.95537   1.95808   1.96079   1.97012
  Beta virt. eigenvalues --    1.97257   1.97947   1.98733   1.99520   2.00875
  Beta virt. eigenvalues --    2.01121   2.01507   2.01872   2.03239   2.03616
  Beta virt. eigenvalues --    2.04052   2.05034   2.05802   2.06088   2.06525
  Beta virt. eigenvalues --    2.06801   2.07436   2.07772   2.08060   2.08542
  Beta virt. eigenvalues --    2.08987   2.09696   2.10330   2.10485   2.10868
  Beta virt. eigenvalues --    2.11070   2.11835   2.12324   2.12944   2.12989
  Beta virt. eigenvalues --    2.13929   2.14722   2.15674   2.15760   2.16136
  Beta virt. eigenvalues --    2.16881   2.17259   2.18185   2.18551   2.19451
  Beta virt. eigenvalues --    2.19638   2.20612   2.20758   2.21715   2.22213
  Beta virt. eigenvalues --    2.22618   2.23463   2.23785   2.24026   2.24508
  Beta virt. eigenvalues --    2.25452   2.26428   2.27182   2.28367   2.28909
  Beta virt. eigenvalues --    2.29452   2.31058   2.32468   2.32961   2.34159
  Beta virt. eigenvalues --    2.34896   2.36138   2.36659   2.37342   2.38277
  Beta virt. eigenvalues --    2.38392   2.39833   2.41077   2.42408   2.43230
  Beta virt. eigenvalues --    2.44875   2.45221   2.45399   2.45616   2.46031
  Beta virt. eigenvalues --    2.46310   2.46872   2.47234   2.47700   2.48373
  Beta virt. eigenvalues --    2.48585   2.49387   2.49534   2.50235   2.51025
  Beta virt. eigenvalues --    2.51084   2.52288   2.52963   2.53500   2.54239
  Beta virt. eigenvalues --    2.54848   2.55213   2.55675   2.55814   2.56859
  Beta virt. eigenvalues --    2.57284   2.57779   2.58624   2.59351   2.60101
  Beta virt. eigenvalues --    2.60758   2.61560   2.62005   2.62790   2.63424
  Beta virt. eigenvalues --    2.64100   2.64873   2.65086   2.65410   2.65922
  Beta virt. eigenvalues --    2.66658   2.66855   2.67690   2.68309   2.68468
  Beta virt. eigenvalues --    2.69155   2.69610   2.69991   2.70425   2.70882
  Beta virt. eigenvalues --    2.72611   2.72999   2.73808   2.74359   2.74892
  Beta virt. eigenvalues --    2.75216   2.75906   2.76474   2.77027   2.78085
  Beta virt. eigenvalues --    2.79378   2.79760   2.80410   2.80640   2.81508
  Beta virt. eigenvalues --    2.81844   2.83008   2.83811   2.84275   2.85241
  Beta virt. eigenvalues --    2.86237   2.87096   2.88406   2.90475   2.91283
  Beta virt. eigenvalues --    2.91642   2.92101   2.93347   2.93782   2.94758
  Beta virt. eigenvalues --    2.96303   2.98023   3.00440   3.01530   3.03647
  Beta virt. eigenvalues --    3.04405   3.06124   3.07910   3.09151   3.09982
  Beta virt. eigenvalues --    3.10265   3.11436   3.11867   3.14114   3.14563
  Beta virt. eigenvalues --    3.14969   3.15779   3.16654   3.16807   3.19476
  Beta virt. eigenvalues --    3.20353   3.21430   3.23348   3.24097   3.26828
  Beta virt. eigenvalues --    3.27438   3.29251   3.31811   3.33071   3.33857
  Beta virt. eigenvalues --    3.34345   3.36173   3.36974   3.37655   3.40365
  Beta virt. eigenvalues --    3.41027   3.43459   3.45421   3.48679   3.50418
  Beta virt. eigenvalues --    3.53009   3.53830   3.53865   3.55214   3.55954
  Beta virt. eigenvalues --    3.57430   3.62942   3.63701   3.65174   3.67951
  Beta virt. eigenvalues --    3.72763   3.74205   3.97933   3.99770   4.19855
  Beta virt. eigenvalues --    4.30397   4.37075   4.38829   4.41367   4.43703
  Beta virt. eigenvalues --    4.44881   4.46038   4.47174   4.48301   4.50464
  Beta virt. eigenvalues --    4.51509   4.52654   4.53525   4.56158   4.58129
  Beta virt. eigenvalues --    4.59321   4.60477   4.61808   4.63504   4.64909
  Beta virt. eigenvalues --    4.65022   4.66834   4.68360   4.71969   4.75524
  Beta virt. eigenvalues --    4.79286   4.81147   4.84416   4.86642   4.89113
  Beta virt. eigenvalues --    4.92290   4.94286   4.96933   5.03029   5.06202
          Condensed to atoms (all electrons):
          Atomic-Atomic Spin Densities.
 Mulliken charges and spin densities:
               1          2
     1  C   -0.895806   0.331534
     2  C   -0.022512  -0.111889
     3  C    0.450257  -0.152575
     4  H    0.198980  -0.009232
     5  H    0.170132   0.003918
     6  C    0.006810   0.205578
     7  H    0.178592   0.004891
     8  C   -0.022739   0.297267
     9  H    0.170853  -0.008290
    10  C   -0.680525  -0.019958
    11  H    0.168013  -0.012211
    12  C   -0.655745  -0.027923
    13  H    0.185017   0.007052
    14  H    0.167184   0.000819
    15  H    0.181202   0.006065
    16  H    0.184677   0.010223
    17  H    0.171371   0.000614
    18  H    0.187259   0.008734
    19  H    0.246398  -0.016272
    20  N   -0.262050   0.200887
    21  N    0.326826   0.179752
    22  C   -0.023228   0.001597
    23  C   -0.621600  -0.013311
    24  C    0.490047  -0.041480
    25  C    1.033630   0.019728
    26  C    0.107750   0.011587
    27  C    0.089284   0.050520
    28  C    0.093290   0.050806
    29  C    0.145450   0.015932
    30  C    0.168248   0.014719
    31  C   -0.753452  -0.007615
    32  N   -0.225457  -0.001432
    33  C   -0.120105  -0.006249
    34  N   -0.356016  -0.013610
    35  C   -0.469297  -0.034052
    36  H    0.197230  -0.001703
    37  C   -0.190440  -0.011312
    38  H    0.195580  -0.002272
    39  C   -0.495129  -0.007396
    40  H    0.205135  -0.000801
    41  C   -0.741298  -0.007573
    42  H    0.203762  -0.000259
    43  C   -0.457322   0.009495
    44  H    0.253106   0.000867
    45  O    0.019491  -0.000654
    46  O   -0.041453   0.001787
    47  H    0.254037   0.000139
    48  O    0.080340   0.005090
    49  O    0.012084   0.001289
    50  C   -0.210445   0.049864
    51  H    0.188907   0.000873
    52  H    0.185428   0.000976
    53  C   -0.081412   0.015844
    54  H    0.192971   0.000468
    55  H    0.193102   0.000442
    56  N   -0.136940  -0.000619
    57  H    0.186686  -0.002170
    58  H    0.190983  -0.000695
    59  O   -0.107575   0.000967
    60  O   -0.109562   0.001228
 Sum of Mulliken charges =  -0.00000   1.00000
 Mulliken charges and spin densities with hydrogens summed into heavy atoms:
               1          2
     1  C   -0.450429   0.306030
     2  C    0.147620  -0.107971
     3  C    0.628850  -0.147684
     6  C    0.177663   0.197287
     8  C    0.145274   0.285056
    10  C   -0.147122  -0.006021
    12  C   -0.112438  -0.008352
    20  N   -0.262050   0.200887
    21  N    0.326826   0.179752
    22  C   -0.023228   0.001597
    23  C   -0.621600  -0.013311
    24  C    0.490047  -0.041480
    25  C    1.033630   0.019728
    26  C    0.107750   0.011587
    27  C    0.286515   0.048817
    28  C    0.288870   0.048534
    29  C    0.350585   0.015132
    30  C    0.372010   0.014461
    31  C   -0.500346  -0.006748
    32  N   -0.225457  -0.001432
    33  C    0.133932  -0.006110
    34  N   -0.356016  -0.013610
    35  C   -0.280389  -0.033179
    37  C   -0.005013  -0.010336
    39  C   -0.302158  -0.006928
    41  C   -0.548196  -0.007130
    43  C   -0.457322   0.009495
    45  O    0.019491  -0.000654
    46  O   -0.041453   0.001787
    48  O    0.080340   0.005090
    49  O    0.012084   0.001289
    50  C   -0.023759   0.047694
    53  C    0.109571   0.015149
    56  N   -0.136940  -0.000619
    59  O   -0.107575   0.000967
    60  O   -0.109562   0.001228
 Electronic spatial extent (au):  <R**2>=          14449.2991
 Charge=             -0.0000 electrons
 Dipole moment (field-independent basis, Debye):
    X=              7.0670    Y=              0.3904    Z=              2.6339  Tot=              7.5520
 Quadrupole moment (field-independent basis, Debye-Ang):
[...]
 124,-0.00001483,0.00001505,-0.00001686,-0.00002382,-0.00000807,-0.0000
 6373,0.00000249,0.00000382,0.00000310,-0.00000179,-0.00000310,-0.00000
 204,-0.03931232,0.00315383,0.00135115,-0.00408823,-0.00079476,-0.00035
 440,-0.00406661,-0.00091461,0.00001836,0.00004622,0.00000621,-0.000016
 13,-0.00000150,-0.00000449,-0.00000131,0.02738583,0.00009250,0.0000640
 4,-0.00004143,-0.00000215,-0.00003194,0.00002445,-0.00003359,-0.000017
 85,-0.00003212,-0.00000863,-0.00000347,0.00000290,0.00000071,0.0000017
 9,0.00000242,-0.00001486,0.00002265,-0.00000101,-0.00000271,0.00000138
 ,0.00000095,0.00000210,0.00000730,0.00003386,0.00000375,0.00000049,0.0
 0000216,0.00000130,-0.00000517,0.00000416,-0.00000042,0.00000454,-0.00
 000304,-0.00000858,-0.00000631,-0.00000724,0.00000061,-0.00000198,-0.0
 0000237,-0.00000005,0.00000042,-0.00000077,0.00000044,-0.00000240,-0.0
 0000064,-0.00000364,-0.00000490,0.00000163,0.00000174,0.00000639,-0.00
 000195,0.00000504,0.00000272,0.00000655,-0.00006323,-0.00008683,0.0000
 1846,0.00000859,0.00016996,0.00000703,-0.00016906,0.00010061,0.0001081
 8,-0.00005770,-0.00001109,-0.00001183,0.00004214,-0.00004034,0.0000239
 5,0.00011712,-0.00130559,-0.00036420,0.00001229,-0.00000729,0.00000054
 ,-0.00000968,0.00000331,-0.00000380,0.00004208,0.00001081,-0.00002698,
 -0.00001837,0.00002040,0.00004812,0.00176837,-0.00322670,-0.00301157,0
 .00204083,-0.00492665,0.00135111,-0.00000722,0.00000880,0.00000519,0.0
 0003429,-0.00001963,-0.00001464,-0.00000140,0.00000036,0.00000039,-0.0
 0004597,-0.00000288,-0.00005796,-0.00001464,0.00002317,0.00002569,-0.0
 0001410,-0.00001278,-0.00001086,0.00003356,-0.00001160,-0.00000704,-0.
 00000181,-0.00000135,-0.00000268,0.00003013,0.00885754,-0.02470524,-0.
 00003949,0.00032568,-0.00115341,-0.00035074,0.00012002,0.02969182,-0.0
 0005223,0.00003206,0.00136722,0.00000951,-0.00000354,-0.00000177,0.000
 00061,0.,-0.00000058,-0.00002225,0.00001194,0.00001499,-0.00001434,-0.
 00000602,-0.00000614,-0.00000041,0.00000044,-0.00000001,0.00001199,-0.
 00001320,0.00003697,0.00005522,-0.00002766,0.00004407,-0.00001847,-0.0
 0000026,-0.00002875,0.00000088,0.00000079,0.00000072,-0.00000106,0.000
 00015,0.00000020,0.00358762,-0.06891828,0.05134811,-0.00087742,0.00096
 297,0.00086026,-0.00091852,0.00123872,-0.00074184,-0.00001428,0.000004
 68,0.00000238,-0.00000099,-0.00000183,-0.00000144,-0.00512500,0.066697
 58,-0.00034101,-0.00023469,0.00014167,0.00000403,0.00011808,-0.0000982
 8,0.00014083,0.00006714,0.00012375,0.00003839,0.00002550,-0.00002215,-
 0.00000292,-0.00000678,-0.00000580,0.00005749,-0.00007983,0.00000736,0
 .00000654,-0.00000526,-0.00000073,-0.00000046,-0.00004786,-0.00012476,
 -0.00001285,-0.00000220,-0.00000769,-0.00000741,0.00001549,-0.00001440
 ,0.00000061,-0.00001213,0.00001106,0.00001735,0.00001208,0.00001997,-0
 .00000311,0.00000789,0.00000805,0.00000040,0.00000025,0.00000313,-0.00
 000188,0.00000827,0.00000277,-0.00000281,0.00001120,0.00000199,-0.0000
 0292,-0.00000214,0.00000172,-0.00001063,0.00000470,-0.00000157,0.00026
 044,0.00035395,-0.00015188,0.00000201,-0.00043534,0.00004349,-0.000155
 31,0.00021577,-0.00021973,0.00009264,0.00003107,0.00006253,-0.00008439
 ,0.00006623,0.00003785,-0.00000926,-0.00041211,0.00074867,-0.00001513,
 -0.00001718,0.00000007,-0.00001397,0.00000825,-0.00000003,0.00006223,-
 0.00000791,0.00000246,0.00001313,0.00000386,-0.00001957,0.00077284,-0.
 00326115,-0.00047334,-0.00011846,0.00165832,0.00121587,0.00002246,-0.0
 0001625,-0.00001400,0.00004942,0.00000468,0.00000893,0.00001200,0.0000
 1361,-0.00000119,0.00003447,-0.00000628,0.00004214,-0.00001387,0.00001
 711,0.00002937,-0.00003648,-0.00000590,-0.00001159,-0.00000466,0.00000
 081,-0.00001413,-0.00000197,-0.00000313,0.00000251,-0.00039181,0.00577
 245,-0.01354812,-0.00003705,0.00037342,-0.00071570,0.00041323,-0.00076
 139,-0.00483922,0.00004447,-0.00015667,-0.00032489,-0.00002968,0.00000
 444,0.00000414,0.00000065,0.00000094,-0.00000096,-0.00002915,0.0000008
 7,0.00000755,-0.00002249,-0.00001266,-0.00001090,0.00000044,-0.0000008
 1,-0.00000007,-0.00000894,0.00001358,-0.00002412,-0.00004117,0.0000150
 1,-0.00002533,-0.00000899,-0.00000160,-0.00001949,0.00000304,0.0000004
 2,-0.00000075,0.00000145,-0.00000135,-0.00000213,0.00139752,0.05132588
 ,-0.34889460,-0.00017521,0.00007100,0.00090138,-0.00016002,0.00006095,
 0.00060389,0.00004503,0.00000553,-0.00000991,0.00000005,-0.00000184,-0
 .00000276,-0.00171897,-0.05479120,0.36555897,0.00457519,0.00286957,-0.
 00183037,-0.00004145,-0.00151800,0.00115741,-0.00233098,-0.00098308,-0
 .00209234,-0.00051880,-0.00031700,0.00030179,0.00003994,0.00009245,0.0
 0008038,-0.00076478,0.00107657,-0.00007873,-0.00011555,0.00006392,0.00
 002459,0.00006862,0.00092647,0.00213181,0.00017220,0.00002618,0.000100
 32,0.00008015,-0.00022921,0.00020094,-0.00001540,0.00016562,-0.0001610
 9,-0.00019699,-0.00019816,-0.00033247,0.00003867,-0.00009858,-0.000112
 59,-0.00000375,0.00000401,-0.00003712,0.00002472,-0.00010996,-0.000038
 84,0.00010014,-0.00013577,-0.00008731,0.00005343,-0.00001665,0.0000143
 5,0.00015059,-0.00009548,-0.00006375,-0.00256182,-0.00356128,0.0009961
 3,-0.00746802,0.00431234,0.00390372,0.00130903,-0.00224342,-0.00043422
 ,0.01001519,0.00101418,-0.00435996,0.00030637,-0.00002070,-0.00055135,
 -0.00065046,0.00001372,0.00040019,-0.00829948,-0.00073389,0.00284829,-
 0.00564377,0.00465584,-0.00004635,-0.00006378,0.00007666,0.00004462,-0
 .00004586,0.00003605,0.00042327,-0.00008948,0.00002345,-0.00019099,0.0
 0016062,-0.00000915,0.00002073,0.00209991,-0.01016786,0.00159739,0.000
 19159,-0.00412748,-0.00006409,0.00176647,0.00498896,-0.00139574,0.0004
 6178,0.00193654,-0.00039745,-0.00008303,0.00005221,-0.00003266,-0.0000
 0046,-0.00004118,0.00000130,0.00024196,-0.00000991,-0.00010223,-0.0001
 2262,-0.00004705,-0.00015364,0.00006616,0.00010457,0.00008823,-0.00000
 043,-0.00001751,0.00000215,-0.00000204,0.00000418,0.00000505,-0.000011
 01,0.00005397,0.00013621,-0.04956477,0.05431613,0.00495159,0.00046783,
 -0.00034945,-0.00025899,-0.00108382,0.00162241,0.00084335,0.00007369,0
 .00161429,-0.00040840,-0.00247302,0.00092560,0.00043189,-0.00005531,-0
 .00091176,0.00033553,-0.00032172,-0.00085828,-0.00018806,-0.00012798,0
 .00003075,-0.00007525,-0.00001341,-0.00000010,0.00001104,0.00000009,0.
 00001044,0.00000856,0.00000652,-0.00004148,-0.00002501,0.00000229,0.00
 000809,-0.00002065,0.00000632,-0.00000335,-0.00001740,-0.24287356,0.18
 847282,-0.00101409,-0.00002384,-0.00001404,0.00000188,-0.00001056,0.00
 000538,-0.00001426,0.25477680,-0.00397099,-0.00253132,0.00159158,0.000
 02895,0.00132962,-0.00103613,0.00201046,0.00084385,0.00180886,0.000443
 81,0.00028780,-0.00025459,-0.00003247,-0.00007753,-0.00006625,0.000664
 92,-0.00095141,0.00007591,0.00009711,-0.00005285,-0.00002085,-0.000062
 74,-0.00079661,-0.00183700,-0.00014763,-0.00002126,-0.00008545,-0.0000
 7266,0.00020295,-0.00017428,0.00001127,-0.00013980,0.00013823,0.000172
 71,0.00017125,0.00028714,-0.00003639,0.00008719,0.00009290,0.00000749,
 -0.00000159,0.00003708,-0.00002407,0.00009428,0.00003754,-0.00008872,0
 .00011367,0.00007465,-0.00004264,0.00001748,-0.00001474,-0.00012836,0.
 00007901,0.00005669,0.00221672,0.00314319,-0.00083511,0.00588834,-0.00
 336930,-0.00346223,-0.00099743,0.00165656,0.00063486,-0.00898742,0.000
 37817,0.00382324,-0.00032463,-0.00005998,0.00040641,0.00063690,0.00014
 255,-0.00042176,0.00572610,0.00269895,-0.00281252,0.00656434,-0.002385
 33,-0.00039777,0.00003718,-0.00005414,-0.00003101,0.00004469,-0.000044
 07,-0.00036168,0.00008673,-0.00005806,0.00018724,-0.00018151,0.0000161
 1,-0.00000091,-0.00527181,0.00674050,0.00079892,-0.00028125,0.00185112
 ,-0.00004687,-0.01219215,-0.00854557,0.00368808,0.00023509,-0.00126902
 ,0.00040793,0.00006916,-0.00004360,0.00001538,0.00000124,0.00003360,0.
 00000045,-0.00020792,-0.00000509,0.00009309,0.00012207,0.00005088,0.00
 012311,-0.00006742,-0.00009088,-0.00010029,0.00000800,0.00001006,-0.00
 000060,-0.00000961,-0.00001805,0.00001615,0.00002738,-0.00004395,-0.00
 011572,0.04653924,-0.01313349,-0.00379489,-0.00053632,0.00105848,0.000
 28517,0.00049882,-0.00081263,-0.00037606,0.00006363,-0.00064776,0.0001
 5569,-0.00086747,0.00231609,-0.00034464,-0.00013904,0.00066997,-0.0003
 0029,0.00006916,0.00055077,0.00004121,0.00011318,-0.00002532,0.0000659
 5,0.00000953,-0.00000051,-0.00000865,0.00000020,-0.00000979,-0.0000075
 0,0.00000003,0.00006293,0.00002517,-0.00000823,-0.00000368,0.00001389,
 -0.00000390,-0.00000010,0.00001927,0.19054672,-0.43112766,0.02531549,0
 .00002100,0.00001435,-0.00000118,0.00000768,-0.00000511,0.00000793,-0.
 23798563,0.57870444,-0.00018055,-0.00010000,0.00006585,0.00000775,0.00
 005846,-0.00003550,0.00009703,0.00004487,0.00008952,0.00002064,0.00000
 907,-0.00001290,-0.00000510,-0.00000456,-0.00000425,0.00002996,-0.0000
 3719,0.00000213,0.00000568,-0.00000257,-0.00000087,-0.00000226,-0.0000
 4441,-0.00009275,-0.00000911,-0.00000158,-0.00000298,-0.00000521,0.000
 00816,-0.00000903,0.00000211,-0.00000675,0.00000724,0.00000972,0.00001
 500,0.00001146,-0.00000053,0.00000101,0.00000677,0.00000097,-0.0000013
 3,0.00000213,0.00000002,0.00000531,0.00000029,-0.00000657,0.00000500,0
 .00000387,0.00000101,-0.00000083,-0.00000122,-0.00000690,0.00000243,0.
 00000634,0.00007562,0.00010984,-0.00004632,0.00049703,-0.00027387,-0.0
 0034096,-0.00009502,0.00018305,0.00007186,-0.00040415,-0.00020067,0.00
 056984,-0.00001204,0.00001171,0.00003991,0.00003033,-0.00001807,-0.000
 03524,0.00003066,-0.00025087,-0.00088147,0.00009392,-0.00052295,-0.000
 48852,0.00000755,-0.00000593,-0.00000658,-0.00000184,0.00000245,-0.000
 02320,0.00000354,0.00000179,0.00001665,0.00000164,0.00000232,0.0000013
 7,0.00154614,0.00140064,0.00385304,-0.00013495,0.00027750,-0.00096518,
 0.00177085,0.00036212,0.00014731,-0.00018554,-0.00026445,-0.00017738,0
 .00000556,-0.00000271,0.00000649,0.00000071,0.00000211,-0.00000011,-0.
 00000748,-0.00000188,0.00000403,0.00000368,0.00000106,0.00001188,-0.00
 000231,-0.00000579,-0.00000037,-0.00000033,0.00000159,-0.00000055,-0.0
 0000118,-0.00000076,-0.00000364,-0.00000110,-0.00000465,-0.00000980,0.
 00609981,-0.00522773,0.02003346,0.00003862,-0.00007164,0.00035916,0.00
 024506,-0.00035027,0.00000766,0.00009222,-0.00001782,0.00005972,0.0006
 9363,-0.00047543,0.00043794,0.00001341,0.00011142,0.00000421,0.0000698
 6,0.00009038,0.00010726,0.00000437,-0.00000134,0.00000271,0.00000156,-
 0.00000016,-0.00000071,-0.00000057,-0.00000024,-0.00000014,-0.00000453
 ,-0.00000132,0.00000711,0.00000150,-0.00000128,0.00000187,0.00000271,0
 .00000195,0.00000279,-0.00140462,0.02558166,-0.08751675,0.00000183,-0.
 00000005,-0.00000039,0.00000217,-0.00000081,0.00000173,-0.00287195,-0.
 05315673,0.04132024,0.00440556,0.00276810,-0.00175495,-0.00004872,-0.0
 0146054,0.00110391,-0.00225540,-0.00095286,-0.00202063,-0.00047552,-0.
 00029250,0.00027865,0.00003635,0.00009121,0.00008136,-0.00073775,0.001
 03158,-0.00007491,-0.00011783,0.00006250,0.00002579,0.00006543,0.00090
 107,0.00206879,0.00016855,0.00002676,0.00009889,0.00007659,-0.00022163
 ,0.00019643,-0.00001839,0.00016125,-0.00015581,-0.00019052,-0.00019745
 ,-0.00031753,0.00003367,-0.00009406,-0.00011554,0.00000145,0.00000515,
 -0.00003189,0.00002144,-0.00010693,-0.00003416,0.00009647,-0.00013133,
 -0.00008597,0.00005435,-0.00001208,0.00001240,0.00014851,-0.00009276,-
 0.00006336,-0.00238738,-0.00340544,0.00092273,-0.00740654,0.00443088,0
 .00416843,0.00124551,-0.00214581,-0.00063627,0.00987012,-0.00226047,-0
 .00423969,0.00032951,-0.00003249,-0.00056695,-0.00069739,-0.00000302,0
 .00043595,-0.00515445,-0.00371689,0.00251261,-0.00840287,0.00198990,0.
 00072122,-0.00007352,0.00008921,0.00005097,-0.00002597,0.00005397,0.00
 041327,-0.00009684,0.00004423,-0.00020594,0.00016116,-0.00004363,0.000
 00769,0.00253529,-0.00526530,0.00078026,0.00076197,-0.00262296,-0.0000
 9401,0.00150975,0.00951370,-0.00039491,-0.00022638,0.00309650,-0.00041
 621,-0.00008103,0.00004808,-0.00004077,0.,-0.00003918,0.00000018,0.000
 22314,0.00000114,-0.00009694,-0.00012355,-0.00005596,-0.00014981,0.000
 08729,0.00011052,0.00008757,-0.00001580,-0.00001433,0.00000259,0.00001
 867,0.00001988,-0.00000482,-0.00000087,0.00004737,0.00014507,-0.045886
 33,-0.04854576,0.02352390,-0.00288490,-0.00116836,0.00093824,-0.000641
 17,0.00106784,0.00050800,-0.00013554,0.00115506,-0.00030801,0.00053170
 ,0.00019407,0.00024353,0.00002191,-0.00131711,0.00038664,-0.00069473,-
 0.00148198,-0.00042242,-0.00011969,0.00003016,-0.00006349,-0.00001471,
 -0.00000091,0.00001177,-0.00000157,0.00000747,0.00000996,0.00000210,-0
 .00004231,-0.00004134,-0.00000220,0.00001090,-0.00002313,0.00000470,-0
 .00000597,-0.00001473,-0.22939424,-0.16946707,0.06465050,-0.00002401,-
 0.00001480,0.00000205,-0.00001629,0.00000420,-0.00001593,0.04832169,0.
 00969857,-0.00616503,0.23761923,0.00355420,0.00225048,-0.00141537,-0.0
 0003404,-0.00117494,0.00091279,-0.00181014,-0.00075617,-0.00163398,-0.
 00039036,-0.00024399,0.00022811,0.00002880,0.00007361,0.00006112,-0.00
 059396,0.00082454,-0.00006918,-0.00009046,0.00004962,0.00002048,0.0000
 5927,0.00071866,0.00165886,0.00013401,0.00002179,0.00007817,0.00006803
 ,-0.00017027,0.00015401,-0.00001549,0.00012830,-0.00012343,-0.00015133
 ,-0.00015472,-0.00025311,0.00002627,-0.00007649,-0.00009211,0.00000106
 ,0.00000091,-0.00002640,0.00001862,-0.00008386,-0.00002932,0.00008052,
 -0.00010409,-0.00006667,0.00003873,-0.00001368,0.00000760,0.00011844,-
 0.00007415,-0.00005164,-0.00192577,-0.00279700,0.00068440,-0.00543182,
 0.00328917,0.00317547,0.00075165,-0.00135522,-0.00057890,0.00846565,-0
 .00037144,-0.00343757,0.00032264,0.00006096,-0.00043057,-0.00062626,-0
 .00017474,0.00045160,-0.00610180,-0.00129038,0.00257803,-0.00583000,0.
 00321655,0.00002241,-0.00003798,0.00006377,0.00004445,-0.00004946,0.00
 005231,0.00034610,-0.00006986,0.00005649,-0.00017818,0.00017024,-0.000
 01876,-0.00000479,0.01308977,-0.00933061,-0.00165898,-0.00000777,-0.00
 203123,0.00037747,0.00498353,0.00547686,-0.00118206,0.00003862,0.00131
 047,-0.00026748,-0.00006330,0.00004399,-0.00001028,-0.00000236,-0.0000
 3499,-0.00000081,0.00019563,0.00001623,-0.00009297,-0.00011694,-0.0000
 6565,-0.00011173,0.00007975,0.00009838,0.00008879,-0.00001741,-0.00000
 883,0.00000519,0.00001922,0.00000932,-0.00002987,-0.00001272,0.0000348
 1,0.00011115,-0.04267043,-0.00737751,0.01457466,0.00091251,0.00238131,
 -0.00093343,-0.00039073,0.00060868,0.00009474,0.00033248,0.00087201,-0
 .00040801,0.00055030,0.00091839,0.00012889,-0.00003507,-0.00048225,0.0
 0016482,-0.00019244,-0.00063102,-0.00016772,-0.00011616,0.00003369,-0.
 00005230,-0.00001328,-0.00000180,0.00000973,-0.00000262,0.00000371,0.0
 0001032,0.00000614,-0.00004783,-0.00004029,-0.00000551,0.00000915,-0.0
 0001797,0.00000328,-0.00000421,-0.00001193,-0.17109717,-0.41543296,0.1
 0158115,-0.00002201,-0.00001747,0.00000209,-0.00001733,0.00000094,-0.0
 0001300,-0.00465799,-0.13700033,0.03276573,0.20855061,0.55870147,-0.00
 159068,-0.00100351,0.00062395,0.00001893,0.00052844,-0.00039905,0.0008
 1970,0.00034847,0.00073867,0.00016663,0.00010257,-0.00009959,-0.000014
 30,-0.00003287,-0.00002877,0.00026875,-0.00037128,0.00002705,0.0000434
 5,-0.00002216,-0.00000951,-0.00002697,-0.00033147,-0.00075380,-0.00006
 215,-0.00001014,-0.00003458,-0.00003073,0.00008021,-0.00007096,0.00000
 766,-0.00005851,0.00005649,0.00007145,0.00007858,0.00011234,-0.0000113
 4,0.00003307,0.00004268,0.00000044,-0.00000134,0.00001212,-0.00000757,
 0.00003853,0.00001260,-0.00003826,0.00004637,0.00003060,-0.00001571,0.
 00000397,-0.00000411,-0.00005419,0.00003198,0.00002669,0.00082762,0.00
 121969,-0.00032388,0.00271110,-0.00152771,-0.00159809,-0.00045743,0.00
 073930,0.00025224,-0.00375762,0.00063476,0.00201865,-0.00013074,-0.000
 01697,0.00020496,0.00026923,0.00002778,-0.00020143,0.00194875,0.001173
 42,-0.00166306,0.00330521,-0.00108621,-0.00092539,0.00002475,-0.000025
 93,-0.00002160,0.00001046,-0.00001459,-0.00015262,0.00003795,-0.000024
 52,0.00008591,-0.00007016,0.00002317,-0.00000073,-0.00277686,0.0028520
 2,0.00097067,-0.00018182,0.00084689,-0.00025778,-0.00040886,-0.0026968
 6,0.00477538,-0.00007650,-0.00115587,-0.00078201,0.00003099,-0.0000210
 2,0.00001287,0.00000133,0.00001428,0.00000054,-0.00008257,-0.00000683,
 0.00003793,0.00004618,0.00002190,0.00005615,-0.00003387,-0.00004568,-0
 .00003763,0.00000497,0.00000528,-0.00000168,-0.00000805,-0.00000550,0.
 00000778,0.00000663,-0.00001912,-0.00005300,0.02280878,0.01607539,0.01
 201756,0.00070193,-0.00011077,0.00052951,0.00021358,-0.00038382,-0.000
 06197,0.00004207,-0.00038841,0.00015449,-0.00011102,-0.00018975,0.0001
 7011,-0.00008343,0.00063210,-0.00011538,0.00008034,0.00033140,0.000232
 61,0.00004586,-0.00000887,0.00002399,0.00000609,0.00000034,-0.00000444
 ,0.00000036,-0.00000270,-0.00000330,-0.00000792,0.00001719,0.00002406,
 0.00000390,-0.00000416,0.00000803,0.00000309,0.00000408,0.00000695,0.0
 6493043,0.10085884,-0.11642718,0.00000970,0.00000552,-0.00000088,0.000
 00997,-0.00000119,0.00000680,-0.00360537,0.02974047,0.02339298,-0.0858
 3419,-0.14694827,0.07735909\\0.00000188,0.00000135,0.00000178,-0.00000
 099,0.00000213,0.00000126,-0.00000072,-0.00000012,0.00000005,0.0000004
 2,0.00000069,0.00000291,-0.00000012,0.00000289,0.00000094,0.00000011,0
 .00000315,0.00000314,-0.00000003,0.00000112,0.00000025,0.00000047,-0.0
 0000030,0.00000205,0.00000019,0.00000450,0.00000237,-0.00000003,0.0000
 0285,0.00000355,0.00000029,-0.00000095,0.00000050,0.00000066,-0.000001
 65,0.00000232,-0.00000008,0.00000316,0.00000438,0.00000071,0.00000213,
 0.00000413,-0.00000013,0.00000341,0.00000468,0.00000060,-0.00000220,0.
 00000312,0.00000048,-0.00000154,0.00000309,0.00000032,-0.00000221,0.00
 000169,-0.00000106,-0.00000053,0.00000231,-0.00000088,0.00000089,-0.00
 000334,0.00000067,-0.00000037,0.00000063,0.00000091,0.00000045,0.00000
 014,-0.00000052,0.00000014,-0.00000178,0.00000040,-0.00000133,-0.00000
 208,0.00000001,-0.00000083,-0.00000129,-0.00000011,0.00000022,0.000001
 49,-0.00000015,-0.00000046,-0.00000216,0.00000011,0.00000249,-0.000002
 26,-0.00000013,-0.00000203,-0.00000221,-0.00000018,-0.00000276,-0.0000
 0020,-0.00000009,-0.00000018,-0.00000077,0.00000110,0.00000124,-0.0000
 0350,0.00000026,-0.00000008,0.00000148,-0.00000041,0.00000087,0.000002
 42,-0.00000058,0.00000099,-0.00000272,-0.00000033,-0.00000059,-0.00000
 229,-0.00000017,0.00000298,-0.00000220,-0.00000114,0.00000220,-0.00000
 084,0.00000026,-0.00000356,-0.00000309,-0.00000023,-0.00000141,-0.0000
 0318,0.00000024,-0.00000391,-0.00000052,-0.00000035,-0.00000264,0.0000
 0055,-0.00000002,-0.00000019,0.00000030,-0.00000028,-0.00000030,-0.000
 00143,-0.00000079,0.00000120,-0.00000277,-0.00000064,-0.00000181,-0.00
 000252,-0.00000007,-0.00000015,0.00000199,0.00000040,0.00000110,0.0000
 0316,0.00000040,-0.00000067,0.00000234,-0.00000036,0.00000237,-0.00000
 295,-0.00000033,0.00000046,-0.00000333,-0.00000061,0.00000365,-0.00000
 230,0.00000022,-0.00000405,-0.00000163,-0.00000014,-0.00000376,-0.0000
 0377,0.00000044,-0.00000438,0.00000024,-0.00000050,-0.00000070,0.00000
 057,-0.00000058,0.00000288,-0.00000338,0.00000032,-0.00000524,-0.00000
 204,0.00000050,-0.00000005,0.00000157,0.00000038,-0.00000056,-0.000000
 84\\\@


            THE IRISH PIG
 'TWAS AN EVENING IN NOVEMBER,
 AS I VERY WELL REMEMBER
 I WAS STROLLING DOWN THE STREET IN DRUNKEN PRIDE,
 BUT MY KNEES WERE ALL A'FLUTTER
 SO I LANDED IN THE GUTTER,
 AND A PIG CAME UP AND LAY DOWN BY MY SIDE.

 YES, I LAY THERE IN THE GUTTER
 THINKING THOUGHTS I COULD NOT UTTER
 WHEN A COLLEEN PASSING BY DID SOFTLY SAY,
 'YE CAN TELL A MAN THAT BOOZES
 BY THE COMPANY THAT HE CHOOSES.' -
 AT THAT, THE PIG GOT UP AND WALKED AWAY!
     -- THE ECONOMIST, AUGUST 23, 1986
 Job cpu time:      17 days 19 hours  0 minutes 10.1 seconds.
 Elapsed time:       0 days 13 hours 21 minutes 21.4 seconds.
 File lengths (MBytes):  RWF=  14839 Int=      0 D2E=      0 Chk=     97 Scr=      1
 Normal termination of Gaussian 16 at Sat Apr 30 00:49:14 2022.
