 Entering Gaussian System, Link 0=g09
 Initial command:
 /LUSTRE/yoltla/nc/app/gaussian/09/g09/l1.exe /tmp/SCRATCH/edgl/877770/Gau-11466.inp -scrdir=/tmp/SCRATCH/edgl/877770/
 Entering Link 1 = /LUSTRE/yoltla/nc/app/gaussian/09/g09/l1.exe PID=     11467.
  
 Copyright (c) 1988,1990,1992,1993,1995,1998,2003,2009,2010,
            Gaussian, Inc.  All Rights Reserved.
  
 This is part of the Gaussian(R) 09 program.  It is based on
 the Gaussian(R) 03 system (copyright 2003, Gaussian, Inc.),
 the Gaussian(R) 98 system (copyright 1998, Gaussian, Inc.),
 the Gaussian(R) 94 system (copyright 1995, Gaussian, Inc.),
 the Gaussian 92(TM) system (copyright 1992, Gaussian, Inc.),
 the Gaussian 90(TM) system (copyright 1990, Gaussian, Inc.),
 the Gaussian 88(TM) system (copyright 1988, Gaussian, Inc.),
 the Gaussian 86(TM) system (copyright 1986, Carnegie Mellon
 University), and the Gaussian 82(TM) system (copyright 1983,
 Carnegie Mellon University). Gaussian is a federally registered
 trademark of Gaussian, Inc.
  
 This software contains proprietary and confidential information,
 including trade secrets, belonging to Gaussian, Inc.
  
 This software is provided under written license and may be
 used, copied, transmitted, or stored only in accord with that
 written license.
  
 The following legend is applicable only to US Government
 contracts under FAR:
  
                    RESTRICTED RIGHTS LEGEND
  
 Use, reproduction and disclosure by the US Government is
 subject to restrictions as set forth in subparagraphs (a)
 and (c) of the Commercial Computer Software - Restricted
 Rights clause in FAR 52.227-19.
  
 Gaussian, Inc.
 340 Quinnipiac St., Bldg. 40, Wallingford CT 06492
  
  
 ---------------------------------------------------------------
 Warning -- This program may not be used in any manner that
 competes with the business of Gaussian, Inc. or will provide
 assistance to any competitor of Gaussian, Inc.  The licensee
 of this program is prohibited from giving any competitor of
 Gaussian, Inc. access to this program.  By using this program,
 the user acknowledges that Gaussian, Inc. is engaged in the
 business of creating and licensing software in the field of
 computational chemistry and represents and warrants to the
 licensee that it is not a competitor of Gaussian, Inc. and that
 it will not use this program in any manner prohibited above.
 ---------------------------------------------------------------
  

 Cite this work as:
 Gaussian 09, Revision B.01,
 M. J. Frisch, G. W. Trucks, H. B. Schlegel, G. E. Scuseria, 
 M. A. Robb, J. R. Cheeseman, G. Scalmani, V. Barone, B. Mennucci, 
 G. A. Petersson, H. Nakatsuji, M. Caricato, X. Li, H. P. Hratchian, 
 A. F. Izmaylov, J. Bloino, G. Zheng, J. L. Sonnenberg, M. Hada, 
 M. Ehara, K. Toyota, R. Fukuda, J. Hasegawa, M. Ishida, T. Nakajima, 
 Y. Honda, O. Kitao, H. Nakai, T. Vreven, J. A. Montgomery, Jr., 
 J. E. Peralta, F. Ogliaro, M. Bearpark, J. J. Heyd, E. Brothers, 
 K. N. Kudin, V. N. Staroverov, T. Keith, R. Kobayashi, J. Normand, 
 K. Raghavachari, A. Rendell, J. C. Burant, S. S. Iyengar, J. Tomasi, 
 M. Cossi, N. Rega, J. M. Millam, M. Klene, J. E. Knox, J. B. Cross, 
 V. Bakken, C. Adamo, J. Jaramillo, R. Gomperts, R. E. Stratmann, 
 O. Yazyev, A. J. Austin, R. Cammi, C. Pomelli, J. W. Ochterski, 
 R. L. Martin, K. Morokuma, V. G. Zakrzewski, G. A. Voth, 
 P. Salvador, J. J. Dannenberg, S. Dapprich, A. D. Daniels, 
 O. Farkas, J. B. Foresman, J. V. Ortiz, J. Cioslowski, 
 and D. J. Fox, Gaussian, Inc., Wallingford CT, 2010.
 
 ******************************************
 Gaussian 09:  EM64L-G09RevB.01 12-Aug-2010
                28-Jan-2022 
 ******************************************
 %nprocshared=20
 Will use up to   20 processors via shared memory.
 %mem=10GB
 %chk=1_ceto_f3_rad_+.chk
 -------------------------------------------------------
 #p opt freq 6-311+g(d,p) scrf=(smd,solvent=water) m052x
 -------------------------------------------------------
 1/14=-1,18=20,19=15,26=3,38=1/1,3;
 2/9=110,12=2,17=6,18=5,40=1/2;
 3/5=4,6=6,7=111,11=2,16=1,25=1,30=1,70=32201,71=1,72=1,74=-38/1,2,3;
 4//1;
 5/5=2,38=5,53=1/2;
 6/7=2,8=2,9=2,10=2,28=1/1;
 7//1,2,3,16;
 1/14=-1,18=20,19=15/3(2);
 2/9=110/2;
 99//99;
 2/9=110/2;
 3/5=4,6=6,7=111,11=2,16=1,25=1,30=1,70=32205,71=1,72=1,74=-38/1,2,3;
 4/5=5,16=3/1;
 5/5=2,38=5,53=1/2;
 7//1,2,3,16;
 1/14=-1,18=20,19=15/3(-5);
 2/9=110/2;
 6/7=2,8=2,9=2,10=2,19=2,28=1/1;
 99/9=1/99;
 Leave Link    1 at Fri Jan 28 03:17:10 2022, MaxMem= 1342177280 cpu:       3.3
 (Enter /LUSTRE/yoltla/nc/app/gaussian/09/g09/l101.exe)
 ---------------
 1_ceto_f3_rad_+
 ---------------
 Symbolic Z-matrix:
 Charge =  1 Multiplicity = 2
 C                    -3.6499   -0.45887   0.00015 
 C                    -2.78602  -1.56498  -0.00046 
 C                    -1.43026  -1.38119  -0.00054 
 C                    -0.9024   -0.05673  -0.00003 
 C                    -1.78241   1.06411   0.0006 
 C                    -3.13562   0.84548   0.00068 
 H                    -4.71887  -0.6143    0.00022 
 H                    -3.19092  -2.5661   -0.00088 
 H                    -0.75653  -2.22128  -0.00103 
 H                    -1.39218   2.06563   0.00111 
 C                     1.21996   1.34004  -0.0003 
 C                     2.64005   0.88223  -0.00001 
 C                     2.4949   -0.59671   0.00005 
 N                     0.44373   0.10434  -0.00012 
 N                     1.26911  -0.99838  -0.00009 
 O                     0.75332   2.43607  -0.00072 
 H                     3.1621    1.24951  -0.88547 
 H                     3.16173   1.24955   0.88567 
 H                    -3.81023   1.68892   0.00119 
 C                     3.62571  -1.54116   0.00053 
 H                     4.54812  -0.9911   -0.19489 
 H                     3.71735  -1.98475   0.99375 
 H                     3.48458  -2.31685  -0.7464 
 
 NAtoms=     23 NQM=     23 NQMF=      0 NMic=      0 NMicF=      0 NTot=     23.
                    Isotopes and Nuclear Properties:
 (Nuclear quadrupole moments (NQMom) in fm**2, nuclear magnetic moments (NMagM)
  in nuclear magnetons)

  Atom         1           2           3           4           5           6           7           8           9          10
 IAtWgt=          12          12          12          12          12          12           1           1           1           1
 AtmWgt=  12.0000000  12.0000000  12.0000000  12.0000000  12.0000000  12.0000000   1.0078250   1.0078250   1.0078250   1.0078250
 NucSpn=           0           0           0           0           0           0           1           1           1           1
 AtZEff=   0.0000000   0.0000000   0.0000000   0.0000000   0.0000000   0.0000000   0.0000000   0.0000000   0.0000000   0.0000000
 NQMom=    0.0000000   0.0000000   0.0000000   0.0000000   0.0000000   0.0000000   0.0000000   0.0000000   0.0000000   0.0000000
 NMagM=    0.0000000   0.0000000   0.0000000   0.0000000   0.0000000   0.0000000   2.7928460   2.7928460   2.7928460   2.7928460

  Atom        11          12          13          14          15          16          17          18          19          20
 IAtWgt=          12          12          12          14          14          16           1           1           1          12
 AtmWgt=  12.0000000  12.0000000  12.0000000  14.0030740  14.0030740  15.9949146   1.0078250   1.0078250   1.0078250  12.0000000
 NucSpn=           0           0           0           2           2           0           1           1           1           0
 AtZEff=   0.0000000   0.0000000   0.0000000   0.0000000   0.0000000   0.0000000   0.0000000   0.0000000   0.0000000   0.0000000
 NQMom=    0.0000000   0.0000000   0.0000000   2.0440000   2.0440000   0.0000000   0.0000000   0.0000000   0.0000000   0.0000000
 NMagM=    0.0000000   0.0000000   0.0000000   0.4037610   0.4037610   0.0000000   2.7928460   2.7928460   2.7928460   0.0000000

  Atom        21          22          23
 IAtWgt=           1           1           1
 AtmWgt=   1.0078250   1.0078250   1.0078250
 NucSpn=           1           1           1
 AtZEff=   0.0000000   0.0000000   0.0000000
 NQMom=    0.0000000   0.0000000   0.0000000
 NMagM=    2.7928460   2.7928460   2.7928460
 Leave Link  101 at Fri Jan 28 03:17:10 2022, MaxMem= 1342177280 cpu:       2.6
 (Enter /LUSTRE/yoltla/nc/app/gaussian/09/g09/l103.exe)

 GradGradGradGradGradGradGradGradGradGradGradGradGradGradGradGradGradGrad
 Berny optimization.
 Initialization pass.
                           ----------------------------
                           !    Initial Parameters    !
                           ! (Angstroms and Degrees)  !
 --------------------------                            --------------------------
 ! Name  Definition              Value          Derivative Info.                !
 --------------------------------------------------------------------------------
 ! R1    R(1,2)                  1.4035         estimate D2E/DX2                !
 ! R2    R(1,6)                  1.4021         estimate D2E/DX2                !
 ! R3    R(1,7)                  1.0802         estimate D2E/DX2                !
 ! R4    R(2,3)                  1.3682         estimate D2E/DX2                !
 ! R5    R(2,8)                  1.0799         estimate D2E/DX2                !
 ! R6    R(3,4)                  1.4258         estimate D2E/DX2                !
 ! R7    R(3,9)                  1.0769         estimate D2E/DX2                !
 ! R8    R(4,5)                  1.425          estimate D2E/DX2                !
 ! R9    R(4,14)                 1.3557         estimate D2E/DX2                !
 ! R10   R(5,6)                  1.3708         estimate D2E/DX2                !
 ! R11   R(5,10)                 1.0749         estimate D2E/DX2                !
 ! R12   R(6,19)                 1.08           estimate D2E/DX2                !
 ! R13   R(11,12)                1.4921         estimate D2E/DX2                !
 ! R14   R(11,14)                1.4593         estimate D2E/DX2                !
 ! R15   R(11,16)                1.1912         estimate D2E/DX2                !
 ! R16   R(12,13)                1.486          estimate D2E/DX2                !
 ! R17   R(12,17)                1.0915         estimate D2E/DX2                !
 ! R18   R(12,18)                1.0916         estimate D2E/DX2                !
 ! R19   R(13,15)                1.2899         estimate D2E/DX2                !
 ! R20   R(13,20)                1.4733         estimate D2E/DX2                !
 ! R21   R(14,15)                1.3774         estimate D2E/DX2                !
 ! R22   R(20,21)                1.0916         estimate D2E/DX2                !
 ! R23   R(20,22)                1.0916         estimate D2E/DX2                !
 ! R24   R(20,23)                1.0861         estimate D2E/DX2                !
 ! A1    A(2,1,6)              120.4911         estimate D2E/DX2                !
 ! A2    A(2,1,7)              119.7171         estimate D2E/DX2                !
 ! A3    A(6,1,7)              119.7917         estimate D2E/DX2                !
 ! A4    A(1,2,3)              120.2698         estimate D2E/DX2                !
 ! A5    A(1,2,8)              119.9891         estimate D2E/DX2                !
 ! A6    A(3,2,8)              119.7411         estimate D2E/DX2                !
 ! A7    A(2,3,4)              119.4498         estimate D2E/DX2                !
 ! A8    A(2,3,9)              121.0082         estimate D2E/DX2                !
 ! A9    A(4,3,9)              119.542          estimate D2E/DX2                !
 ! A10   A(3,4,5)              120.1339         estimate D2E/DX2                !
 ! A11   A(3,4,14)             118.5528         estimate D2E/DX2                !
 ! A12   A(5,4,14)             121.3132         estimate D2E/DX2                !
 ! A13   A(4,5,6)              118.9586         estimate D2E/DX2                !
 ! A14   A(4,5,10)             120.5757         estimate D2E/DX2                !
 ! A15   A(6,5,10)             120.4656         estimate D2E/DX2                !
 ! A16   A(1,6,5)              120.6967         estimate D2E/DX2                !
 ! A17   A(1,6,19)             119.8274         estimate D2E/DX2                !
 ! A18   A(5,6,19)             119.4759         estimate D2E/DX2                !
 ! A19   A(12,11,14)           104.267          estimate D2E/DX2                !
 ! A20   A(12,11,16)           130.9307         estimate D2E/DX2                !
 ! A21   A(14,11,16)           124.8023         estimate D2E/DX2                !
 ! A22   A(11,12,13)           102.2631         estimate D2E/DX2                !
 ! A23   A(11,12,17)           110.5969         estimate D2E/DX2                !
 ! A24   A(11,12,18)           110.5959         estimate D2E/DX2                !
 ! A25   A(13,12,17)           112.4336         estimate D2E/DX2                !
 ! A26   A(13,12,18)           112.4301         estimate D2E/DX2                !
 ! A27   A(17,12,18)           108.4452         estimate D2E/DX2                !
 ! A28   A(12,13,15)           113.7485         estimate D2E/DX2                !
 ! A29   A(12,13,20)           124.263          estimate D2E/DX2                !
 ! A30   A(15,13,20)           121.9886         estimate D2E/DX2                !
 ! A31   A(4,14,11)            128.9588         estimate D2E/DX2                !
 ! A32   A(4,14,15)            119.9913         estimate D2E/DX2                !
 ! A33   A(11,14,15)           111.0499         estimate D2E/DX2                !
 ! A34   A(13,15,14)           108.6716         estimate D2E/DX2                !
 ! A35   A(13,20,21)           108.9948         estimate D2E/DX2                !
 ! A36   A(13,20,22)           108.9783         estimate D2E/DX2                !
 ! A37   A(13,20,23)           110.9697         estimate D2E/DX2                !
 ! A38   A(21,20,22)           107.2599         estimate D2E/DX2                !
 ! A39   A(21,20,23)           110.2791         estimate D2E/DX2                !
 ! A40   A(22,20,23)           110.269          estimate D2E/DX2                !
 ! D1    D(6,1,2,3)              0.0002         estimate D2E/DX2                !
 ! D2    D(6,1,2,8)           -179.9992         estimate D2E/DX2                !
 ! D3    D(7,1,2,3)           -179.9991         estimate D2E/DX2                !
 ! D4    D(7,1,2,8)              0.0015         estimate D2E/DX2                !
 ! D5    D(2,1,6,5)              0.0005         estimate D2E/DX2                !
 ! D6    D(2,1,6,19)          -179.9969         estimate D2E/DX2                !
 ! D7    D(7,1,6,5)            179.9998         estimate D2E/DX2                !
 ! D8    D(7,1,6,19)             0.0025         estimate D2E/DX2                !
 ! D9    D(1,2,3,4)             -0.0013         estimate D2E/DX2                !
 ! D10   D(1,2,3,9)           -179.9983         estimate D2E/DX2                !
 ! D11   D(8,2,3,4)            179.9981         estimate D2E/DX2                !
 ! D12   D(8,2,3,9)              0.0012         estimate D2E/DX2                !
 ! D13   D(2,3,4,5)              0.0017         estimate D2E/DX2                !
 ! D14   D(2,3,4,14)           180.0            estimate D2E/DX2                !
 ! D15   D(9,3,4,5)            179.9987         estimate D2E/DX2                !
 ! D16   D(9,3,4,14)            -0.003          estimate D2E/DX2                !
 ! D17   D(3,4,5,6)             -0.001          estimate D2E/DX2                !
 ! D18   D(3,4,5,10)           179.9922         estimate D2E/DX2                !
 ! D19   D(14,4,5,6)          -179.9992         estimate D2E/DX2                !
 ! D20   D(14,4,5,10)           -0.006          estimate D2E/DX2                !
 ! D21   D(3,4,14,11)          179.9683         estimate D2E/DX2                !
 ! D22   D(3,4,14,15)           -0.0287         estimate D2E/DX2                !
 ! D23   D(5,4,14,11)           -0.0335         estimate D2E/DX2                !
 ! D24   D(5,4,14,15)          179.9695         estimate D2E/DX2                !
 ! D25   D(4,5,6,1)             -0.0001         estimate D2E/DX2                !
 ! D26   D(4,5,6,19)           179.9973         estimate D2E/DX2                !
 ! D27   D(10,5,6,1)          -179.9933         estimate D2E/DX2                !
 ! D28   D(10,5,6,19)            0.004          estimate D2E/DX2                !
 ! D29   D(14,11,12,13)          0.0107         estimate D2E/DX2                !
 ! D30   D(14,11,12,17)        119.9365         estimate D2E/DX2                !
 ! D31   D(14,11,12,18)       -119.9106         estimate D2E/DX2                !
 ! D32   D(16,11,12,13)       -179.9829         estimate D2E/DX2                !
 ! D33   D(16,11,12,17)        -60.0572         estimate D2E/DX2                !
 ! D34   D(16,11,12,18)         60.0958         estimate D2E/DX2                !
 ! D35   D(12,11,14,4)         179.9875         estimate D2E/DX2                !
 ! D36   D(12,11,14,15)         -0.0153         estimate D2E/DX2                !
 ! D37   D(16,11,14,4)          -0.0183         estimate D2E/DX2                !
 ! D38   D(16,11,14,15)        179.9788         estimate D2E/DX2                !
 ! D39   D(11,12,13,15)         -0.0033         estimate D2E/DX2                !
 ! D40   D(11,12,13,20)       -179.9902         estimate D2E/DX2                !
 ! D41   D(17,12,13,15)       -118.6378         estimate D2E/DX2                !
 ! D42   D(17,12,13,20)         61.3754         estimate D2E/DX2                !
 ! D43   D(18,12,13,15)        118.6282         estimate D2E/DX2                !
 ! D44   D(18,12,13,20)        -61.3587         estimate D2E/DX2                !
 ! D45   D(12,13,15,14)         -0.0062         estimate D2E/DX2                !
 ! D46   D(20,13,15,14)        179.981          estimate D2E/DX2                !
 ! D47   D(12,13,20,21)        -10.93           estimate D2E/DX2                !
 ! D48   D(12,13,20,22)        105.8273         estimate D2E/DX2                !
 ! D49   D(12,13,20,23)       -132.5632         estimate D2E/DX2                !
 ! D50   D(15,13,20,21)        169.0842         estimate D2E/DX2                !
 ! D51   D(15,13,20,22)        -74.1586         estimate D2E/DX2                !
 ! D52   D(15,13,20,23)         47.451          estimate D2E/DX2                !
 ! D53   D(4,14,15,13)        -179.9888         estimate D2E/DX2                !
 ! D54   D(11,14,15,13)          0.0137         estimate D2E/DX2                !
 --------------------------------------------------------------------------------
 Trust Radius=3.00D-01 FncErr=1.00D-07 GrdErr=1.00D-06
 Number of steps in this run=    128 maximum allowed number of steps=    138.
 GradGradGradGradGradGradGradGradGradGradGradGradGradGradGradGradGradGrad

 Leave Link  103 at Fri Jan 28 03:17:10 2022, MaxMem= 1342177280 cpu:       0.5
 (Enter /LUSTRE/yoltla/nc/app/gaussian/09/g09/l202.exe)
                          Input orientation:                          
 ---------------------------------------------------------------------
 Center     Atomic      Atomic             Coordinates (Angstroms)
 Number     Number       Type             X           Y           Z
 ---------------------------------------------------------------------
      1          6           0       -3.649902   -0.458866    0.000149
      2          6           0       -2.786017   -1.564982   -0.000459
      3          6           0       -1.430257   -1.381187   -0.000539
      4          6           0       -0.902401   -0.056732   -0.000028
      5          6           0       -1.782409    1.064111    0.000597
      6          6           0       -3.135615    0.845475    0.000676
      7          1           0       -4.718874   -0.614297    0.000222
      8          1           0       -3.190916   -2.566095   -0.000875
      9          1           0       -0.756531   -2.221278   -0.001031
     10          1           0       -1.392179    2.065633    0.001110
     11          6           0        1.219956    1.340043   -0.000301
     12          6           0        2.640050    0.882227   -0.000005
     13          6           0        2.494897   -0.596711    0.000050
     14          7           0        0.443733    0.104340   -0.000116
     15          7           0        1.269110   -0.998379   -0.000092
     16          8           0        0.753315    2.436072   -0.000719
     17          1           0        3.162098    1.249506   -0.885469
     18          1           0        3.161725    1.249549    0.885667
     19          1           0       -3.810226    1.688919    0.001193
     20          6           0        3.625712   -1.541160    0.000526
     21          1           0        4.548117   -0.991098   -0.194889
     22          1           0        3.717352   -1.984750    0.993749
     23          1           0        3.484576   -2.316847   -0.746404
 ---------------------------------------------------------------------
                    Distance matrix (angstroms):
                    1          2          3          4          5
     1  C    0.000000
     2  C    1.403492   0.000000
     3  C    2.403643   1.368161   0.000000
     4  C    2.776774   2.413054   1.425768   0.000000
     5  C    2.409770   2.814136   2.470525   1.425028   0.000000
     6  C    1.402069   2.435677   2.804687   2.408573   1.370755
     7  H    1.080213   2.154005   3.376851   3.856987   3.382289
     8  H    2.156637   1.079894   2.122246   3.396204   3.893878
     9  H    3.387874   2.132965   1.076875   2.169456   3.441832
    10  H    3.386799   3.888978   3.447031   2.178145   1.074861
    11  C    5.191492   4.948433   3.798516   2.540744   3.015018
    12  C    6.431332   5.952397   4.657300   3.664779   4.426198
    13  C    6.146345   5.368948   4.002779   3.439943   4.588429
    14  N    4.132197   3.635646   2.391366   1.355736   2.424225
    15  N    4.948510   4.094520   2.726376   2.366888   3.683155
    16  O    5.269629   5.341845   4.397664   2.992569   2.883084
    17  H    7.078573   6.639628   5.365946   4.360094   5.026692
    18  H    7.078212   6.639461   5.365858   4.359810   5.026151
    19  H    2.153761   3.411287   3.884560   3.391570   2.121892
    20  C    7.355673   6.411773   5.058499   4.765221   6.002933
    21  H    8.217592   7.359121   5.994238   5.533458   6.658653
    22  H    7.588939   6.592304   5.277384   5.103623   6.366261
    23  H    7.410143   6.359408   5.058395   4.991069   6.303175
                    6          7          8          9         10
     6  C    0.000000
     7  H    2.153519   0.000000
     8  H    3.412019   2.478744   0.000000
     9  H    3.881368   4.275810   2.458684   0.000000
    10  H    2.127993   4.271876   4.968739   4.333781   0.000000
    11  C    4.383560   6.252131   5.891834   4.073022   2.711039
    12  C    5.775782   7.509550   6.774296   4.600925   4.202300
    13  C    5.812277   7.213792   6.017221   3.634694   4.711416
    14  N    3.655272   5.212384   4.510199   2.617085   2.686493
    15  N    4.775081   6.000289   4.727533   2.366158   4.058402
    16  O    4.201640   6.264950   6.370136   4.895972   2.177240
    17  H    6.372573   8.146651   7.463384   5.308882   4.711000
    18  H    6.372046   8.146274   7.463320   5.309012   4.710252
    19  H    1.080045   2.475974   4.299848   4.961320   2.447216
    20  C    7.170186   8.395903   6.893251   4.434706   6.179659
    21  H    7.902593   9.276700   7.900056   5.448873   6.683497
    22  H    7.480610   8.604368   7.003671   4.589245   6.595320
    23  H    7.374642   8.411464   6.721617   4.307169   6.599064
                   11         12         13         14         15
    11  C    0.000000
    12  C    1.492067   0.000000
    13  C    2.318726   1.486044   0.000000
    14  N    1.459275   2.330004   2.167659   0.000000
    15  N    2.338939   2.327264   1.289919   1.377402   0.000000
    16  O    1.191232   2.444218   3.497268   2.352194   3.472967
    17  H    2.136267   1.091547   2.153559   3.079734   3.069248
    18  H    2.136257   1.091552   2.153521   3.079545   3.069160
    19  H    5.042266   6.500524   6.706615   4.539500   5.746410
    20  C    3.753531   2.616168   1.473339   3.582270   2.418302
    21  H    4.068014   2.681053   2.099822   4.252515   3.284796
    22  H    4.275438   3.219889   2.099640   4.008572   2.820379
    23  H    4.365549   3.391815   2.120266   3.958007   2.683958
                   16         17         18         19         20
    16  O    0.000000
    17  H    2.827182   0.000000
    18  H    2.827358   1.771136   0.000000
    19  H    4.624300   7.042198   7.041551   0.000000
    20  C    4.906021   2.964413   2.964256   8.107193   0.000000
    21  H    5.117003   2.723648   2.847838   8.779683   1.091598
    22  H    5.414624   3.781558   3.283458   8.434776   1.091632
    23  H    5.532275   3.583602   3.935361   8.355788   1.086054
                   21         22         23
    21  H    0.000000
    22  H    1.757946   0.000000
    23  H    1.786868   1.786786   0.000000
 Stoichiometry    C10H10N2O(1+,2)
 Framework group  C1[X(C10H10N2O)]
 Deg. of freedom    63
 Full point group                 C1      NOp   1
 Largest Abelian subgroup         C1      NOp   1
 Largest concise Abelian subgroup C1      NOp   1
                         Standard orientation:                         
 ---------------------------------------------------------------------
 Center     Atomic      Atomic             Coordinates (Angstroms)
 Number     Number       Type             X           Y           Z
 ---------------------------------------------------------------------
      1          6           0       -3.649673   -0.459260   -0.000395
      2          6           0       -2.785612   -1.565238   -0.001003
      3          6           0       -1.429882   -1.381228   -0.001083
      4          6           0       -0.902236   -0.056689   -0.000572
      5          6           0       -1.782422    1.064014    0.000053
      6          6           0       -3.135593    0.845163    0.000132
      7          1           0       -4.718620   -0.614860   -0.000322
      8          1           0       -3.190352   -2.566416   -0.001419
      9          1           0       -0.756022   -2.221212   -0.001575
     10          1           0       -1.392351    2.065598    0.000566
     11          6           0        1.219899    1.340423   -0.000845
     12          6           0        2.640066    0.882833   -0.000549
     13          6           0        2.495148   -0.596128   -0.000494
     14          7           0        0.443872    0.104597   -0.000660
     15          7           0        1.269425   -0.997991   -0.000636
     16          8           0        0.753084    2.436378   -0.001263
     17          1           0        3.162055    1.250195   -0.886013
     18          1           0        3.161682    1.250238    0.885123
     19          1           0       -3.810338    1.688500    0.000649
     20          6           0        3.626113   -1.540397   -0.000018
     21          1           0        4.548430   -0.990189   -0.195433
     22          1           0        3.717824   -1.983973    0.993205
     23          1           0        3.485100   -2.316107   -0.746948
 ---------------------------------------------------------------------
 Rotational constants (GHZ):      1.7711231      0.5422657      0.4173344
 Leave Link  202 at Fri Jan 28 03:17:10 2022, MaxMem= 1342177280 cpu:       1.4
 (Enter /LUSTRE/yoltla/nc/app/gaussian/09/g09/l301.exe)
 Standard basis: 6-311+G(d,p) (5D, 7F)
 Ernie: Thresh=  0.10000D-02 Tol=  0.10000D-05 Strict=F.
 There are   346 symmetry adapted basis functions of A   symmetry.
 Integral buffers will be    131072 words long.
 Raffenetti 2 integral format.
 Two-electron integral symmetry is turned on.
   346 basis functions,   548 primitive gaussians,   359 cartesian basis functions
    46 alpha electrons       45 beta electrons
       nuclear repulsion energy       746.0174493846 Hartrees.
 IExCor= 3428 DFT=T Ex+Corr=M052X ExCW=0 ScaHFX=  0.560000
 ScaDFX=  0.440000  0.440000  1.000000  1.000000 ScalE2=  1.000000  1.000000
 IRadAn=      0 IRanWt=     -1 IRanGd=            0 ICorTp=0
 NAtoms=   23 NActive=   23 NUniq=   23 SFac= 1.00D+00 NAtFMM=   50 NAOKFM=F Big=F
 ------------------------------------------------------------------------------
 Polarizable Continuum Model (PCM)
 =================================
 Model                : PCM.
 Atomic radii         : SMD-Coulomb.
 Polarization charges : Total charges.
 Charge compensation  : None.
 Solution method      : Matrix inversion.
 Cavity type          : VdW (van der Waals Surface) (Alpha=1.000).
 Cavity algorithm     : GePol (No added spheres)
                        Default sphere list used, NSphG=   23.
                        Lebedev-Laikov grids with approx.  5.0 points / Ang**2.
                        Smoothing algorithm: Karplus/York (Gamma=1.0000).
                        Polarization charges: spherical gaussians, with
                                              point-specific exponents (IZeta= 3).
                        Self-potential: point-specific (ISelfS= 7).
                        Self-field    : sphere-specific E.n sum rule (ISelfD= 2).
 1st derivatives      : Analytical E(r).r(x)/FMM algorithm (CHGder, D1EAlg=3).
                        Cavity 1st derivative terms included.
 Solvent              : Water, Eps=  78.355300 Eps(inf)=   1.777849
 ------------------------------------------------------------------------------
 GePol: Number of generator spheres                  =      23
 GePol: Total number of spheres                      =      23
 GePol: Number of exposed spheres                    =      23 (100.00%)
 GePol: Number of points                             =    1794
 GePol: Average weight of points                     =       0.11
 GePol: Minimum weight of points                     =   0.16D-10
 GePol: Maximum weight of points                     =    0.21991
 GePol: Number of points with low weight             =      95
 GePol: Fraction of low-weight points (<1% of avg)   =       5.30%
 GePol: Cavity surface area                          =    199.489 Ang**2
 GePol: Cavity volume                                =    179.327 Ang**3
 ------------------------------------------------------------------------------
 Atomic radii for non-electrostatic terms: SMD-CDS.
 ------------------------------------------------------------------------------
 PCM non-electrostatic energy =         0.0072154075 Hartrees.
 Nuclear repulsion after PCM non-electrostatic terms =      746.0246647921 Hartrees.
 Leave Link  301 at Fri Jan 28 03:17:11 2022, MaxMem= 1342177280 cpu:       2.3
 (Enter /LUSTRE/yoltla/nc/app/gaussian/09/g09/l302.exe)
 NPDir=0 NMtPBC=     1 NCelOv=     1 NCel=       1 NClECP=     1 NCelD=      1
         NCelK=      1 NCelE2=     1 NClLst=     1 CellRange=     0.0.
 One-electron integrals computed using PRISM.
 NBasis=   346 RedAO= T  NBF=   346
 NBsUse=   346 1.00D-06 NBFU=   346
 Precomputing XC quadrature grid using
 IXCGrd= 2 IRadAn=           0 IRanWt=          -1 IRanGd=           0 AccXCQ= 0.00D+00.
 NRdTot=    1489 NPtTot=      189928 NUsed=      200663 NTot=      200695
 NSgBfM=   358   358   358   358   358 NAtAll=    23    23.
 Leave Link  302 at Fri Jan 28 03:17:12 2022, MaxMem= 1342177280 cpu:      16.2
 (Enter /LUSTRE/yoltla/nc/app/gaussian/09/g09/l303.exe)
 DipDrv:  MaxL=1.
 Leave Link  303 at Fri Jan 28 03:17:12 2022, MaxMem= 1342177280 cpu:       4.7
 (Enter /LUSTRE/yoltla/nc/app/gaussian/09/g09/l401.exe)
 Harris functional with IExCor= 1009 diagonalized for initial guess.
 ExpMin= 4.38D-02 ExpMax= 8.59D+03 ExpMxC= 1.30D+03 IAcc=2 IRadAn=         0 AccDes= 0.00D+00
 HarFok:  IExCor= 1009 AccDes= 0.00D+00 IRadAn=         0 IDoV= 1
 ScaDFX=  1.000000  1.000000  1.000000  1.000000
 FoFCou: FMM=F IPFlag=           0 FMFlag=      100000 FMFlg1=           0
         NFxFlg=           0 DoJE=T BraDBF=F KetDBF=T FulRan=T
         Omega=  0.000000  0.000000  1.000000  0.000000  0.000000 ICntrl=     500 IOpCl=  0
         NMat0=    1 NMatS0=    1 NMatT0=    0 NMatD0=    1 NMtDS0=    0 NMtDT0=    0
         I1Cent=           4 NGrid=           0.
 Petite list used in FoFCou.
 Harris En= -571.134967017704    
 Initial guess orbital symmetries:
 Alpha Orbitals:
       Occupied  (A) (A) (A) (A) (A) (A) (A) (A) (A) (A) (A) (A)
                 (A) (A) (A) (A) (A) (A) (A) (A) (A) (A) (A) (A)
                 (A) (A) (A) (A) (A) (A) (A) (A) (A) (A) (A) (A)
                 (A) (A) (A) (A) (A) (A) (A) (A) (A) (A)
       Virtual   (A) (A) (A) (A) (A) (A) (A) (A) (A) (A) (A) (A)
                 (A) (A) (A) (A) (A) (A) (A) (A) (A) (A) (A) (A)
                 (A) (A) (A) (A) (A) (A) (A) (A) (A) (A) (A) (A)
                 (A) (A) (A) (A) (A) (A) (A) (A) (A) (A) (A) (A)
                 (A) (A) (A) (A) (A) (A) (A) (A) (A) (A) (A) (A)
                 (A) (A) (A) (A) (A) (A) (A) (A) (A) (A) (A) (A)
                 (A) (A) (A) (A) (A) (A) (A) (A) (A) (A) (A) (A)
                 (A) (A) (A) (A) (A) (A) (A) (A) (A) (A) (A) (A)
                 (A) (A) (A) (A) (A) (A) (A) (A) (A) (A) (A) (A)
                 (A) (A) (A) (A) (A) (A) (A) (A) (A) (A) (A) (A)
                 (A) (A) (A) (A) (A) (A) (A) (A) (A) (A) (A) (A)
                 (A) (A) (A) (A) (A) (A) (A) (A) (A) (A) (A) (A)
                 (A) (A) (A) (A) (A) (A) (A) (A) (A) (A) (A) (A)
                 (A) (A) (A) (A) (A) (A) (A) (A) (A) (A) (A) (A)
                 (A) (A) (A) (A) (A) (A) (A) (A) (A) (A) (A) (A)
                 (A) (A) (A) (A) (A) (A) (A) (A) (A) (A) (A) (A)
                 (A) (A) (A) (A) (A) (A) (A) (A) (A) (A) (A) (A)
                 (A) (A) (A) (A) (A) (A) (A) (A) (A) (A) (A) (A)
                 (A) (A) (A) (A) (A) (A) (A) (A) (A) (A) (A) (A)
                 (A) (A) (A) (A) (A) (A) (A) (A) (A) (A) (A) (A)
                 (A) (A) (A) (A) (A) (A) (A) (A) (A) (A) (A) (A)
                 (A) (A) (A) (A) (A) (A) (A) (A) (A) (A) (A) (A)
                 (A) (A) (A) (A) (A) (A) (A) (A) (A) (A) (A) (A)
                 (A) (A) (A) (A) (A) (A) (A) (A) (A) (A) (A) (A)
                 (A) (A) (A) (A) (A) (A) (A) (A) (A) (A) (A) (A)
 Beta  Orbitals:
       Occupied  (A) (A) (A) (A) (A) (A) (A) (A) (A) (A) (A) (A)
                 (A) (A) (A) (A) (A) (A) (A) (A) (A) (A) (A) (A)
                 (A) (A) (A) (A) (A) (A) (A) (A) (A) (A) (A) (A)
                 (A) (A) (A) (A) (A) (A) (A) (A) (A)
       Virtual   (A) (A) (A) (A) (A) (A) (A) (A) (A) (A) (A) (A)
                 (A) (A) (A) (A) (A) (A) (A) (A) (A) (A) (A) (A)
                 (A) (A) (A) (A) (A) (A) (A) (A) (A) (A) (A) (A)
                 (A) (A) (A) (A) (A) (A) (A) (A) (A) (A) (A) (A)
                 (A) (A) (A) (A) (A) (A) (A) (A) (A) (A) (A) (A)
                 (A) (A) (A) (A) (A) (A) (A) (A) (A) (A) (A) (A)
                 (A) (A) (A) (A) (A) (A) (A) (A) (A) (A) (A) (A)
                 (A) (A) (A) (A) (A) (A) (A) (A) (A) (A) (A) (A)
                 (A) (A) (A) (A) (A) (A) (A) (A) (A) (A) (A) (A)
                 (A) (A) (A) (A) (A) (A) (A) (A) (A) (A) (A) (A)
                 (A) (A) (A) (A) (A) (A) (A) (A) (A) (A) (A) (A)
                 (A) (A) (A) (A) (A) (A) (A) (A) (A) (A) (A) (A)
                 (A) (A) (A) (A) (A) (A) (A) (A) (A) (A) (A) (A)
                 (A) (A) (A) (A) (A) (A) (A) (A) (A) (A) (A) (A)
                 (A) (A) (A) (A) (A) (A) (A) (A) (A) (A) (A) (A)
                 (A) (A) (A) (A) (A) (A) (A) (A) (A) (A) (A) (A)
                 (A) (A) (A) (A) (A) (A) (A) (A) (A) (A) (A) (A)
                 (A) (A) (A) (A) (A) (A) (A) (A) (A) (A) (A) (A)
                 (A) (A) (A) (A) (A) (A) (A) (A) (A) (A) (A) (A)
                 (A) (A) (A) (A) (A) (A) (A) (A) (A) (A) (A) (A)
                 (A) (A) (A) (A) (A) (A) (A) (A) (A) (A) (A) (A)
                 (A) (A) (A) (A) (A) (A) (A) (A) (A) (A) (A) (A)
                 (A) (A) (A) (A) (A) (A) (A) (A) (A) (A) (A) (A)
                 (A) (A) (A) (A) (A) (A) (A) (A) (A) (A) (A) (A)
                 (A) (A) (A) (A) (A) (A) (A) (A) (A) (A) (A) (A)
                 (A)
 The electronic state of the initial guess is 2-A.
 Initial guess <Sx>= 0.0000 <Sy>= 0.0000 <Sz>= 0.5000 <S**2>= 0.7500 S= 0.5000
 Leave Link  401 at Fri Jan 28 03:17:13 2022, MaxMem= 1342177280 cpu:      20.3
 (Enter /LUSTRE/yoltla/nc/app/gaussian/09/g09/l502.exe)
 UHF open shell SCF:
 Requested convergence on RMS density matrix=1.00D-08 within 128 cycles.
 Requested convergence on MAX density matrix=1.00D-06.
 Requested convergence on             energy=1.00D-06.
 No special actions if energy rises.
 Using DIIS extrapolation, IDIIS=  1040.
 Integral symmetry usage will be decided dynamically.
       200443 words used for storage of precomputed grid.
 IEnd=      615076 IEndB=      615076 NGot=  1342177280 MDV=  1341708085
 LenX=  1341708085 LenY=  1341578763
 Fock matrices will be formed incrementally for  20 cycles.

 Cycle   1  Pass 1  IDiag  1:
 FoFCou: FMM=F IPFlag=           0 FMFlag=      100000 FMFlg1=           0
         NFxFlg=           0 DoJE=F BraDBF=F KetDBF=F FulRan=T
         Omega=  0.000000  0.000000  1.000000  0.000000  0.000000 ICntrl=       0 IOpCl=  1
         NMat0=    1 NMatS0=    1 NMatT0=    0 NMatD0=    1 NMtDS0=    0 NMtDT0=    0
         I1Cent=           0 NGrid=           0.
 Symmetry not used in FoFCou.
 E= -571.361975816198    
 DIIS: error= 2.94D-02 at cycle   1 NSaved=   1.
 NSaved= 1 IEnMin= 1 EnMin= -571.361975816198     IErMin= 1 ErrMin= 2.94D-02
 ErrMax= 2.94D-02 EMaxC= 1.00D-01 BMatC= 1.51D+00 BMatP= 1.51D+00
 IDIUse=3 WtCom= 7.06D-01 WtEn= 2.94D-01
 Coeff-Com:  0.100D+01
 Coeff-En:   0.100D+01
 Coeff:      0.100D+01
 Gap=     0.416 Goal=   None    Shift=    0.000
 Gap=     0.189 Goal=   None    Shift=    0.000
 GapD=    0.189 DampG=1.000 DampE=0.500 DampFc=0.5000 IDamp=-1.
 Damping current iteration by 5.00D-01
 RMSDP=1.73D-02 MaxDP=1.11D+00              OVMax= 3.63D-01

 Cycle   2  Pass 1  IDiag  1:
 RMSU=  6.00D-03    CP:  1.04D+00
 E= -571.489352442320     Delta-E=       -0.127376626122 Rises=F Damp=T
 DIIS: error= 1.09D-02 at cycle   2 NSaved=   2.
 NSaved= 2 IEnMin= 2 EnMin= -571.489352442320     IErMin= 2 ErrMin= 1.09D-02
 ErrMax= 1.09D-02 EMaxC= 1.00D-01 BMatC= 1.87D-01 BMatP= 1.51D+00
 IDIUse=3 WtCom= 8.91D-01 WtEn= 1.09D-01
 Coeff-Com:  0.688D-01 0.931D+00
 Coeff-En:   0.136D+00 0.864D+00
 Coeff:      0.761D-01 0.924D+00
 Gap=     0.295 Goal=   None    Shift=    0.000
 Gap=     0.174 Goal=   None    Shift=    0.000
 RMSDP=5.78D-03 MaxDP=3.74D-01 DE=-1.27D-01 OVMax= 1.61D-01

 Cycle   3  Pass 1  IDiag  1:
 RMSU=  3.93D-03    CP:  1.00D+00  1.04D+00
 E= -571.654874082389     Delta-E=       -0.165521640069 Rises=F Damp=F
 DIIS: error= 1.12D-02 at cycle   3 NSaved=   3.
 NSaved= 3 IEnMin= 3 EnMin= -571.654874082389     IErMin= 2 ErrMin= 1.09D-02
 ErrMax= 1.12D-02 EMaxC= 1.00D-01 BMatC= 8.59D-02 BMatP= 1.87D-01
 IDIUse=3 WtCom= 8.88D-01 WtEn= 1.12D-01
 Coeff-Com: -0.592D-01 0.403D+00 0.657D+00
 Coeff-En:   0.000D+00 0.000D+00 0.100D+01
 Coeff:     -0.526D-01 0.357D+00 0.695D+00
 Gap=     0.282 Goal=   None    Shift=    0.000
 Gap=     0.175 Goal=   None    Shift=    0.000
 RMSDP=2.75D-03 MaxDP=3.90D-01 DE=-1.66D-01 OVMax= 5.72D-02

 Cycle   4  Pass 1  IDiag  1:
 RMSU=  9.01D-04    CP:  9.59D-01  1.10D+00  8.66D-01
 E= -571.670360221318     Delta-E=       -0.015486138929 Rises=F Damp=F
 DIIS: error= 4.79D-03 at cycle   4 NSaved=   4.
 NSaved= 4 IEnMin= 4 EnMin= -571.670360221318     IErMin= 4 ErrMin= 4.79D-03
 ErrMax= 4.79D-03 EMaxC= 1.00D-01 BMatC= 1.35D-02 BMatP= 8.59D-02
 IDIUse=3 WtCom= 9.52D-01 WtEn= 4.79D-02
 Coeff-Com: -0.156D-01 0.449D-01 0.310D+00 0.660D+00
 Coeff-En:   0.000D+00 0.000D+00 0.540D-01 0.946D+00
 Coeff:     -0.148D-01 0.428D-01 0.298D+00 0.674D+00
 Gap=     0.281 Goal=   None    Shift=    0.000
 Gap=     0.175 Goal=   None    Shift=    0.000
 RMSDP=7.95D-04 MaxDP=5.54D-02 DE=-1.55D-02 OVMax= 2.06D-02

 Cycle   5  Pass 1  IDiag  1:
 RMSU=  4.01D-04    CP:  9.56D-01  1.05D+00  9.27D-01  7.76D-01
 E= -571.673236856387     Delta-E=       -0.002876635069 Rises=F Damp=F
 DIIS: error= 1.04D-03 at cycle   5 NSaved=   5.
 NSaved= 5 IEnMin= 5 EnMin= -571.673236856387     IErMin= 5 ErrMin= 1.04D-03
 ErrMax= 1.04D-03 EMaxC= 1.00D-01 BMatC= 6.15D-04 BMatP= 1.35D-02
 IDIUse=3 WtCom= 9.90D-01 WtEn= 1.04D-02
 Coeff-Com: -0.165D-02-0.765D-02 0.740D-01 0.247D+00 0.688D+00
 Coeff-En:   0.000D+00 0.000D+00 0.000D+00 0.000D+00 0.100D+01
 Coeff:     -0.164D-02-0.757D-02 0.732D-01 0.244D+00 0.692D+00
 Gap=     0.282 Goal=   None    Shift=    0.000
 Gap=     0.179 Goal=   None    Shift=    0.000
 RMSDP=2.19D-04 MaxDP=1.36D-02 DE=-2.88D-03 OVMax= 1.22D-02

 Cycle   6  Pass 1  IDiag  1:
 RMSU=  1.28D-04    CP:  9.55D-01  1.05D+00  9.46D-01  7.88D-01  1.06D+00
 E= -571.673548792470     Delta-E=       -0.000311936083 Rises=F Damp=F
 DIIS: error= 9.49D-04 at cycle   6 NSaved=   6.
 NSaved= 6 IEnMin= 6 EnMin= -571.673548792470     IErMin= 6 ErrMin= 9.49D-04
 ErrMax= 9.49D-04 EMaxC= 1.00D-01 BMatC= 1.44D-04 BMatP= 6.15D-04
 IDIUse=3 WtCom= 9.91D-01 WtEn= 9.49D-03
 Coeff-Com:  0.406D-02-0.128D-01-0.377D-01-0.614D-01 0.173D+00 0.935D+00
 Coeff-En:   0.000D+00 0.000D+00 0.000D+00 0.000D+00 0.000D+00 0.100D+01
 Coeff:      0.403D-02-0.127D-01-0.374D-01-0.608D-01 0.171D+00 0.936D+00
 Gap=     0.283 Goal=   None    Shift=    0.000
 Gap=     0.181 Goal=   None    Shift=    0.000
 RMSDP=1.32D-04 MaxDP=5.91D-03 DE=-3.12D-04 OVMax= 1.81D-02

 Cycle   7  Pass 1  IDiag  1:
 RMSU=  6.00D-05    CP:  9.55D-01  1.05D+00  9.53D-01  7.79D-01  1.17D+00
                    CP:  1.40D+00
 E= -571.673749268491     Delta-E=       -0.000200476021 Rises=F Damp=F
 DIIS: error= 5.35D-04 at cycle   7 NSaved=   7.
 NSaved= 7 IEnMin= 7 EnMin= -571.673749268491     IErMin= 7 ErrMin= 5.35D-04
 ErrMax= 5.35D-04 EMaxC= 1.00D-01 BMatC= 7.11D-05 BMatP= 1.44D-04
 IDIUse=3 WtCom= 9.95D-01 WtEn= 5.35D-03
 Coeff-Com:  0.261D-02-0.327D-02-0.328D-01-0.101D+00-0.236D+00 0.356D+00
 Coeff-Com:  0.101D+01
 Coeff-En:   0.000D+00 0.000D+00 0.000D+00 0.000D+00 0.000D+00 0.000D+00
 Coeff-En:   0.100D+01
 Coeff:      0.259D-02-0.325D-02-0.326D-01-0.101D+00-0.234D+00 0.354D+00
 Coeff:      0.101D+01
 Gap=     0.283 Goal=   None    Shift=    0.000
 Gap=     0.182 Goal=   None    Shift=    0.000
 RMSDP=1.45D-04 MaxDP=1.26D-02 DE=-2.00D-04 OVMax= 1.61D-02

 Cycle   8  Pass 1  IDiag  1:
 RMSU=  5.81D-05    CP:  9.53D-01  1.04D+00  9.60D-01  7.95D-01  1.23D+00
                    CP:  1.79D+00  1.38D+00
 E= -571.673866339422     Delta-E=       -0.000117070931 Rises=F Damp=F
 DIIS: error= 2.61D-04 at cycle   8 NSaved=   8.
 NSaved= 8 IEnMin= 8 EnMin= -571.673866339422     IErMin= 8 ErrMin= 2.61D-04
 ErrMax= 2.61D-04 EMaxC= 1.00D-01 BMatC= 1.72D-05 BMatP= 7.11D-05
 IDIUse=3 WtCom= 9.97D-01 WtEn= 2.61D-03
 Coeff-Com: -0.403D-03 0.282D-02 0.115D-01 0.108D-01-0.102D+00-0.227D+00
 Coeff-Com:  0.145D+00 0.116D+01
 Coeff-En:   0.000D+00 0.000D+00 0.000D+00 0.000D+00 0.000D+00 0.000D+00
 Coeff-En:   0.000D+00 0.100D+01
 Coeff:     -0.402D-03 0.282D-02 0.114D-01 0.108D-01-0.102D+00-0.227D+00
 Coeff:      0.144D+00 0.116D+01
 Gap=     0.283 Goal=   None    Shift=    0.000
 Gap=     0.184 Goal=   None    Shift=    0.000
 RMSDP=8.60D-05 MaxDP=5.67D-03 DE=-1.17D-04 OVMax= 1.08D-02

 Cycle   9  Pass 1  IDiag  1:
 RMSU=  2.33D-05    CP:  9.53D-01  1.04D+00  9.63D-01  7.94D-01  1.25D+00
                    CP:  1.98D+00  1.83D+00  1.62D+00
 E= -571.673906894392     Delta-E=       -0.000040554970 Rises=F Damp=F
 DIIS: error= 1.21D-04 at cycle   9 NSaved=   9.
 NSaved= 9 IEnMin= 9 EnMin= -571.673906894392     IErMin= 9 ErrMin= 1.21D-04
 ErrMax= 1.21D-04 EMaxC= 1.00D-01 BMatC= 4.56D-06 BMatP= 1.72D-05
 IDIUse=3 WtCom= 9.99D-01 WtEn= 1.21D-03
 Coeff-Com: -0.667D-03 0.136D-02 0.130D-01 0.328D-01 0.375D-01-0.137D+00
 Coeff-Com: -0.280D+00 0.276D+00 0.106D+01
 Coeff-En:   0.000D+00 0.000D+00 0.000D+00 0.000D+00 0.000D+00 0.000D+00
 Coeff-En:   0.000D+00 0.000D+00 0.100D+01
 Coeff:     -0.666D-03 0.136D-02 0.130D-01 0.327D-01 0.375D-01-0.137D+00
 Coeff:     -0.279D+00 0.276D+00 0.106D+01
 Gap=     0.283 Goal=   None    Shift=    0.000
 Gap=     0.184 Goal=   None    Shift=    0.000
 RMSDP=4.24D-05 MaxDP=3.54D-03 DE=-4.06D-05 OVMax= 5.81D-03

 Cycle  10  Pass 1  IDiag  1:
 RMSU=  7.81D-06    CP:  9.52D-01  1.04D+00  9.64D-01  7.97D-01  1.25D+00
                    CP:  2.07D+00  2.01D+00  1.99D+00  1.21D+00
 E= -571.673916921330     Delta-E=       -0.000010026938 Rises=F Damp=F
 DIIS: error= 5.25D-05 at cycle  10 NSaved=  10.
 NSaved=10 IEnMin=10 EnMin= -571.673916921330     IErMin=10 ErrMin= 5.25D-05
 ErrMax= 5.25D-05 EMaxC= 1.00D-01 BMatC= 1.75D-06 BMatP= 4.56D-06
 IDIUse=1 WtCom= 1.00D+00 WtEn= 0.00D+00
 Coeff-Com: -0.828D-04-0.306D-03 0.268D-02 0.110D-01 0.376D-01 0.167D-01
 Coeff-Com: -0.160D+00-0.178D+00 0.445D+00 0.826D+00
 Coeff:     -0.828D-04-0.306D-03 0.268D-02 0.110D-01 0.376D-01 0.167D-01
 Coeff:     -0.160D+00-0.178D+00 0.445D+00 0.826D+00
 Gap=     0.283 Goal=   None    Shift=    0.000
 Gap=     0.184 Goal=   None    Shift=    0.000
 RMSDP=1.87D-05 MaxDP=1.96D-03 DE=-1.00D-05 OVMax= 2.08D-03

 Cycle  11  Pass 1  IDiag  1:
 RMSU=  5.78D-06    CP:  9.52D-01  1.04D+00  9.64D-01  7.99D-01  1.25D+00
                    CP:  2.10D+00  2.05D+00  2.11D+00  1.37D+00  1.22D+00
 E= -571.673918837456     Delta-E=       -0.000001916126 Rises=F Damp=F
 DIIS: error= 3.00D-05 at cycle  11 NSaved=  11.
 NSaved=11 IEnMin=11 EnMin= -571.673918837456     IErMin=11 ErrMin= 3.00D-05
 ErrMax= 3.00D-05 EMaxC= 1.00D-01 BMatC= 4.44D-07 BMatP= 1.75D-06
 IDIUse=1 WtCom= 1.00D+00 WtEn= 0.00D+00
 Coeff-Com:  0.305D-03-0.781D-03-0.384D-02-0.913D-02-0.714D-02 0.684D-01
 Coeff-Com:  0.419D-01-0.162D+00-0.232D+00 0.259D+00 0.104D+01
 Coeff:      0.305D-03-0.781D-03-0.384D-02-0.913D-02-0.714D-02 0.684D-01
 Coeff:      0.419D-01-0.162D+00-0.232D+00 0.259D+00 0.104D+01
 Gap=     0.283 Goal=   None    Shift=    0.000
 Gap=     0.184 Goal=   None    Shift=    0.000
 RMSDP=1.43D-05 MaxDP=1.10D-03 DE=-1.92D-06 OVMax= 1.38D-03

 Cycle  12  Pass 1  IDiag  1:
 RMSU=  2.02D-06    CP:  9.52D-01  1.04D+00  9.64D-01  7.99D-01  1.25D+00
                    CP:  2.13D+00  2.06D+00  2.17D+00  1.47D+00  1.48D+00
                    CP:  1.24D+00
 E= -571.673919491154     Delta-E=       -0.000000653699 Rises=F Damp=F
 DIIS: error= 1.62D-05 at cycle  12 NSaved=  12.
 NSaved=12 IEnMin=12 EnMin= -571.673919491154     IErMin=12 ErrMin= 1.62D-05
 ErrMax= 1.62D-05 EMaxC= 1.00D-01 BMatC= 9.66D-08 BMatP= 4.44D-07
 IDIUse=1 WtCom= 1.00D+00 WtEn= 0.00D+00
 Coeff-Com:  0.134D-03-0.239D-03-0.118D-02-0.382D-02-0.921D-02 0.200D-01
 Coeff-Com:  0.317D-01-0.576D-02-0.124D+00-0.831D-01 0.207D+00 0.968D+00
 Coeff:      0.134D-03-0.239D-03-0.118D-02-0.382D-02-0.921D-02 0.200D-01
 Coeff:      0.317D-01-0.576D-02-0.124D+00-0.831D-01 0.207D+00 0.968D+00
 Gap=     0.283 Goal=   None    Shift=    0.000
 Gap=     0.184 Goal=   None    Shift=    0.000
 RMSDP=3.96D-06 MaxDP=2.63D-04 DE=-6.54D-07 OVMax= 4.35D-04

 Cycle  13  Pass 1  IDiag  1:
 RMSU=  1.40D-06    CP:  9.52D-01  1.04D+00  9.64D-01  7.99D-01  1.25D+00
                    CP:  2.14D+00  2.05D+00  2.17D+00  1.48D+00  1.57D+00
                    CP:  1.36D+00  1.36D+00
 E= -571.673919617463     Delta-E=       -0.000000126309 Rises=F Damp=F
 DIIS: error= 9.11D-06 at cycle  13 NSaved=  13.
 NSaved=13 IEnMin=13 EnMin= -571.673919617463     IErMin=13 ErrMin= 9.11D-06
 ErrMax= 9.11D-06 EMaxC= 1.00D-01 BMatC= 3.74D-08 BMatP= 9.66D-08
 IDIUse=1 WtCom= 1.00D+00 WtEn= 0.00D+00
 Coeff-Com: -0.403D-04 0.154D-03 0.105D-02 0.204D-02-0.173D-02-0.151D-01
 Coeff-Com: -0.842D-02 0.532D-01 0.448D-01-0.117D+00-0.330D+00 0.296D+00
 Coeff-Com:  0.108D+01
 Coeff:     -0.403D-04 0.154D-03 0.105D-02 0.204D-02-0.173D-02-0.151D-01
 Coeff:     -0.842D-02 0.532D-01 0.448D-01-0.117D+00-0.330D+00 0.296D+00
 Coeff:      0.108D+01
 Gap=     0.283 Goal=   None    Shift=    0.000
 Gap=     0.184 Goal=   None    Shift=    0.000
 RMSDP=4.30D-06 MaxDP=3.56D-04 DE=-1.26D-07 OVMax= 4.42D-04

 Cycle  14  Pass 1  IDiag  1:
 RMSU=  8.14D-07    CP:  9.52D-01  1.04D+00  9.65D-01  7.99D-01  1.25D+00
                    CP:  2.15D+00  2.05D+00  2.19D+00  1.50D+00  1.60D+00
                    CP:  1.47D+00  1.81D+00  1.35D+00
 E= -571.673919682160     Delta-E=       -0.000000064697 Rises=F Damp=F
 DIIS: error= 5.46D-06 at cycle  14 NSaved=  14.
 NSaved=14 IEnMin=14 EnMin= -571.673919682160     IErMin=14 ErrMin= 5.46D-06
 ErrMax= 5.46D-06 EMaxC= 1.00D-01 BMatC= 5.74D-09 BMatP= 3.74D-08
 IDIUse=1 WtCom= 1.00D+00 WtEn= 0.00D+00
 Coeff-Com: -0.136D-04 0.184D-04 0.257D-03 0.863D-03 0.178D-02-0.218D-02
 Coeff-Com: -0.755D-02-0.185D-02 0.333D-01 0.236D-01-0.462D-01-0.215D+00
 Coeff-Com: -0.129D+00 0.134D+01
 Coeff:     -0.136D-04 0.184D-04 0.257D-03 0.863D-03 0.178D-02-0.218D-02
 Coeff:     -0.755D-02-0.185D-02 0.333D-01 0.236D-01-0.462D-01-0.215D+00
 Coeff:     -0.129D+00 0.134D+01
 Gap=     0.283 Goal=   None    Shift=    0.000
 Gap=     0.184 Goal=   None    Shift=    0.000
 RMSDP=1.82D-06 MaxDP=1.40D-04 DE=-6.47D-08 OVMax= 1.99D-04

 Cycle  15  Pass 1  IDiag  1:
 RMSU=  3.49D-07    CP:  9.52D-01  1.04D+00  9.65D-01  7.99D-01  1.26D+00
                    CP:  2.16D+00  2.05D+00  2.20D+00  1.50D+00  1.60D+00
                    CP:  1.47D+00  2.03D+00  1.69D+00  1.51D+00
 E= -571.673919697838     Delta-E=       -0.000000015678 Rises=F Damp=F
 DIIS: error= 2.00D-06 at cycle  15 NSaved=  15.
 NSaved=15 IEnMin=15 EnMin= -571.673919697838     IErMin=15 ErrMin= 2.00D-06
 ErrMax= 2.00D-06 EMaxC= 1.00D-01 BMatC= 1.99D-09 BMatP= 5.74D-09
 IDIUse=1 WtCom= 1.00D+00 WtEn= 0.00D+00
 Coeff-Com:  0.693D-05-0.318D-04-0.118D-03-0.114D-03 0.813D-03 0.261D-02
 Coeff-Com: -0.867D-03-0.128D-01 0.281D-02 0.276D-01 0.485D-01-0.114D+00
 Coeff-Com: -0.304D+00 0.469D+00 0.881D+00
 Coeff:      0.693D-05-0.318D-04-0.118D-03-0.114D-03 0.813D-03 0.261D-02
 Coeff:     -0.867D-03-0.128D-01 0.281D-02 0.276D-01 0.485D-01-0.114D+00
 Coeff:     -0.304D+00 0.469D+00 0.881D+00
 Gap=     0.283 Goal=   None    Shift=    0.000
 Gap=     0.184 Goal=   None    Shift=    0.000
 RMSDP=1.02D-06 MaxDP=7.16D-05 DE=-1.57D-08 OVMax= 1.11D-04

 Cycle  16  Pass 1  IDiag  1:
 RMSU=  1.47D-07    CP:  9.52D-01  1.04D+00  9.65D-01  7.99D-01  1.26D+00
                    CP:  2.16D+00  2.05D+00  2.21D+00  1.51D+00  1.61D+00
                    CP:  1.48D+00  2.10D+00  1.81D+00  1.79D+00  1.34D+00
 E= -571.673919700870     Delta-E=       -0.000000003032 Rises=F Damp=F
 DIIS: error= 1.01D-06 at cycle  16 NSaved=  16.
 NSaved=16 IEnMin=16 EnMin= -571.673919700870     IErMin=16 ErrMin= 1.01D-06
 ErrMax= 1.01D-06 EMaxC= 1.00D-01 BMatC= 2.83D-10 BMatP= 1.99D-09
 IDIUse=1 WtCom= 1.00D+00 WtEn= 0.00D+00
 Coeff-Com:  0.811D-05-0.200D-04-0.103D-03-0.272D-03-0.319D-03 0.159D-02
 Coeff-Com:  0.194D-02-0.377D-02-0.696D-02 0.362D-03 0.289D-01 0.338D-01
 Coeff-Com: -0.786D-01-0.198D+00 0.219D+00 0.100D+01
 Coeff:      0.811D-05-0.200D-04-0.103D-03-0.272D-03-0.319D-03 0.159D-02
 Coeff:      0.194D-02-0.377D-02-0.696D-02 0.362D-03 0.289D-01 0.338D-01
 Coeff:     -0.786D-01-0.198D+00 0.219D+00 0.100D+01
 Gap=     0.283 Goal=   None    Shift=    0.000
 Gap=     0.184 Goal=   None    Shift=    0.000
 RMSDP=3.57D-07 MaxDP=2.40D-05 DE=-3.03D-09 OVMax= 4.07D-05

 Cycle  17  Pass 1  IDiag  1:
 RMSU=  7.05D-08    CP:  9.52D-01  1.04D+00  9.65D-01  7.99D-01  1.26D+00
                    CP:  2.16D+00  2.05D+00  2.21D+00  1.51D+00  1.61D+00
                    CP:  1.48D+00  2.12D+00  1.84D+00  1.91D+00  1.57D+00
                    CP:  1.23D+00
 E= -571.673919701356     Delta-E=       -0.000000000486 Rises=F Damp=F
 DIIS: error= 4.51D-07 at cycle  17 NSaved=  17.
 NSaved=17 IEnMin=17 EnMin= -571.673919701356     IErMin=17 ErrMin= 4.51D-07
 ErrMax= 4.51D-07 EMaxC= 1.00D-01 BMatC= 4.25D-11 BMatP= 2.83D-10
 IDIUse=1 WtCom= 1.00D+00 WtEn= 0.00D+00
 Coeff-Com: -0.493D-06 0.285D-05 0.186D-04 0.215D-04-0.993D-04-0.324D-03
 Coeff-Com:  0.364D-04 0.137D-02 0.499D-03-0.405D-02-0.575D-02 0.113D-01
 Coeff-Com:  0.294D-01-0.312D-01-0.140D+00 0.131D-01 0.113D+01
 Coeff:     -0.493D-06 0.285D-05 0.186D-04 0.215D-04-0.993D-04-0.324D-03
 Coeff:      0.364D-04 0.137D-02 0.499D-03-0.405D-02-0.575D-02 0.113D-01
 Coeff:      0.294D-01-0.312D-01-0.140D+00 0.131D-01 0.113D+01
 Gap=     0.283 Goal=   None    Shift=    0.000
 Gap=     0.184 Goal=   None    Shift=    0.000
 RMSDP=1.29D-07 MaxDP=9.40D-06 DE=-4.86D-10 OVMax= 1.42D-05

 Cycle  18  Pass 1  IDiag  1:
 RMSU=  3.01D-08    CP:  9.52D-01  1.04D+00  9.65D-01  7.99D-01  1.26D+00
                    CP:  2.16D+00  2.05D+00  2.21D+00  1.51D+00  1.61D+00
                    CP:  1.49D+00  2.13D+00  1.85D+00  1.94D+00  1.63D+00
                    CP:  1.37D+00  1.16D+00
 E= -571.673919701411     Delta-E=       -0.000000000055 Rises=F Damp=F
 DIIS: error= 2.86D-07 at cycle  18 NSaved=  18.
 NSaved=18 IEnMin=18 EnMin= -571.673919701411     IErMin=18 ErrMin= 2.86D-07
 ErrMax= 2.86D-07 EMaxC= 1.00D-01 BMatC= 1.41D-11 BMatP= 4.25D-11
 IDIUse=1 WtCom= 1.00D+00 WtEn= 0.00D+00
 Coeff-Com: -0.136D-05 0.419D-05 0.278D-04 0.604D-04 0.159D-04-0.394D-03
 Coeff-Com: -0.347D-03 0.125D-02 0.161D-02-0.195D-02-0.785D-02-0.157D-02
 Coeff-Com:  0.264D-01 0.336D-01-0.108D+00-0.184D+00 0.403D+00 0.838D+00
 Coeff:     -0.136D-05 0.419D-05 0.278D-04 0.604D-04 0.159D-04-0.394D-03
 Coeff:     -0.347D-03 0.125D-02 0.161D-02-0.195D-02-0.785D-02-0.157D-02
 Coeff:      0.264D-01 0.336D-01-0.108D+00-0.184D+00 0.403D+00 0.838D+00
 Gap=     0.283 Goal=   None    Shift=    0.000
 Gap=     0.184 Goal=   None    Shift=    0.000
 RMSDP=3.37D-08 MaxDP=3.07D-06 DE=-5.46D-11 OVMax= 3.51D-06

 Cycle  19  Pass 1  IDiag  1:
 RMSU=  1.38D-08    CP:  9.52D-01  1.04D+00  9.65D-01  7.99D-01  1.26D+00
                    CP:  2.16D+00  2.05D+00  2.21D+00  1.51D+00  1.61D+00
                    CP:  1.49D+00  2.13D+00  1.86D+00  1.94D+00  1.63D+00
                    CP:  1.40D+00  1.31D+00  1.29D+00
 E= -571.673919701433     Delta-E=       -0.000000000022 Rises=F Damp=F
 DIIS: error= 1.32D-07 at cycle  19 NSaved=  19.
 NSaved=19 IEnMin=19 EnMin= -571.673919701433     IErMin=19 ErrMin= 1.32D-07
 ErrMax= 1.32D-07 EMaxC= 1.00D-01 BMatC= 4.09D-12 BMatP= 1.41D-11
 IDIUse=1 WtCom= 1.00D+00 WtEn= 0.00D+00
 Coeff-Com:  0.376D-06-0.125D-05-0.334D-05-0.211D-05 0.295D-04 0.914D-04
 Coeff-Com: -0.697D-04-0.384D-03 0.126D-03 0.124D-02 0.110D-02-0.437D-02
 Coeff-Com: -0.907D-02 0.204D-01 0.290D-01-0.202D-01-0.382D+00 0.168D+00
 Coeff-Com:  0.120D+01
 Coeff:      0.376D-06-0.125D-05-0.334D-05-0.211D-05 0.295D-04 0.914D-04
 Coeff:     -0.697D-04-0.384D-03 0.126D-03 0.124D-02 0.110D-02-0.437D-02
 Coeff:     -0.907D-02 0.204D-01 0.290D-01-0.202D-01-0.382D+00 0.168D+00
 Coeff:      0.120D+01
 Gap=     0.283 Goal=   None    Shift=    0.000
 Gap=     0.184 Goal=   None    Shift=    0.000
 RMSDP=3.39D-08 MaxDP=2.94D-06 DE=-2.21D-11 OVMax= 3.65D-06

 Cycle  20  Pass 1  IDiag  1:
 Restarting incremental Fock formation.
 E= -571.673919701472     Delta-E=       -0.000000000039 Rises=F Damp=F
 DIIS: error= 5.51D-08 at cycle  20 NSaved=  20.
 NSaved=20 IEnMin=20 EnMin= -571.673919701472     IErMin=20 ErrMin= 5.51D-08
 ErrMax= 5.51D-08 EMaxC= 1.00D-01 BMatC= 8.88D-13 BMatP= 4.09D-12
 IDIUse=1 WtCom= 1.00D+00 WtEn= 0.00D+00
 Coeff-Com:  0.535D-06-0.155D-05-0.776D-05-0.158D-04 0.325D-05 0.130D-03
 Coeff-Com:  0.637D-04-0.432D-03-0.326D-03 0.914D-03 0.222D-02-0.987D-03
 Coeff-Com: -0.971D-02-0.899D-03 0.331D-01 0.428D-01-0.218D+00-0.133D+00
 Coeff-Com:  0.335D+00 0.949D+00
 Coeff:      0.535D-06-0.155D-05-0.776D-05-0.158D-04 0.325D-05 0.130D-03
 Coeff:      0.637D-04-0.432D-03-0.326D-03 0.914D-03 0.222D-02-0.987D-03
 Coeff:     -0.971D-02-0.899D-03 0.331D-01 0.428D-01-0.218D+00-0.133D+00
 Coeff:      0.335D+00 0.949D+00
 Gap=     0.283 Goal=   None    Shift=    0.000
 Gap=     0.184 Goal=   None    Shift=    0.000
 RMSDP=1.97D-08 MaxDP=2.09D-06 DE=-3.93D-11 OVMax= 1.54D-06

 Cycle  21  Pass 1  IDiag  1:
 RMSU=  1.44D-08    CP:  1.00D+00
 E= -571.673919701458     Delta-E=        0.000000000014 Rises=F Damp=F
 DIIS: error= 1.92D-08 at cycle  21 NSaved=  20.
 NSaved=20 IEnMin=19 EnMin= -571.673919701472     IErMin=20 ErrMin= 1.92D-08
 ErrMax= 1.92D-08 EMaxC= 1.00D-01 BMatC= 1.57D-13 BMatP= 8.88D-13
 IDIUse=1 WtCom= 1.00D+00 WtEn= 0.00D+00
 Coeff-Com:  0.142D-07-0.471D-06-0.172D-05-0.555D-05 0.325D-05 0.269D-04
 Coeff-Com:  0.105D-05-0.894D-04-0.115D-03 0.851D-04 0.104D-02 0.398D-03
 Coeff-Com: -0.526D-02-0.106D-02 0.166D-01 0.381D-01-0.634D-01-0.231D+00
 Coeff-Com:  0.221D+00 0.102D+01
 Coeff:      0.142D-07-0.471D-06-0.172D-05-0.555D-05 0.325D-05 0.269D-04
 Coeff:      0.105D-05-0.894D-04-0.115D-03 0.851D-04 0.104D-02 0.398D-03
 Coeff:     -0.526D-02-0.106D-02 0.166D-01 0.381D-01-0.634D-01-0.231D+00
 Coeff:      0.221D+00 0.102D+01
 Gap=     0.283 Goal=   None    Shift=    0.000
 Gap=     0.184 Goal=   None    Shift=    0.000
 RMSDP=9.76D-09 MaxDP=1.10D-06 DE= 1.41D-11 OVMax= 9.40D-07

 Cycle  22  Pass 1  IDiag  1:
 RMSU=  2.87D-09    CP:  1.00D+00  1.43D+00
 E= -571.673919701474     Delta-E=       -0.000000000016 Rises=F Damp=F
 DIIS: error= 9.92D-09 at cycle  22 NSaved=  20.
 NSaved=20 IEnMin=20 EnMin= -571.673919701474     IErMin=20 ErrMin= 9.92D-09
 ErrMax= 9.92D-09 EMaxC= 1.00D-01 BMatC= 3.49D-14 BMatP= 1.57D-13
 IDIUse=1 WtCom= 1.00D+00 WtEn= 0.00D+00
 Coeff-Com: -0.304D-06-0.743D-06-0.308D-05-0.661D-06 0.122D-04 0.139D-04
 Coeff-Com: -0.177D-04-0.896D-04-0.376D-04 0.369D-03 0.589D-03-0.118D-02
 Coeff-Com: -0.306D-02 0.169D-02 0.243D-01 0.957D-02-0.712D-01-0.113D+00
 Coeff-Com:  0.187D+00 0.965D+00
 Coeff:     -0.304D-06-0.743D-06-0.308D-05-0.661D-06 0.122D-04 0.139D-04
 Coeff:     -0.177D-04-0.896D-04-0.376D-04 0.369D-03 0.589D-03-0.118D-02
 Coeff:     -0.306D-02 0.169D-02 0.243D-01 0.957D-02-0.712D-01-0.113D+00
 Coeff:      0.187D+00 0.965D+00
 Gap=     0.283 Goal=   None    Shift=    0.000
 Gap=     0.184 Goal=   None    Shift=    0.000
 RMSDP=3.42D-09 MaxDP=3.75D-07 DE=-1.64D-11 OVMax= 3.59D-07

 Error on total polarization charges =  0.04281
 SCF Done:  E(UM052X) =  -571.673919701     A.U. after   22 cycles
             Convg  =    0.3417D-08             -V/T =  2.0039
 <Sx>= 0.0000 <Sy>= 0.0000 <Sz>= 0.5000 <S**2>= 0.7834 S= 0.5166
 <L.S>= 0.000000000000E+00
 KE= 5.694473957327D+02 PE=-2.806733069875D+03 EE= 9.195870896488D+02
 SMD-CDS (non-electrostatic) energy       (kcal/mol) =       4.53
 (included in total energy above)
 Annihilation of the first spin contaminant:
 S**2 before annihilation     0.7834,   after     0.7508
 Leave Link  502 at Fri Jan 28 03:19:04 2022, MaxMem= 1342177280 cpu:    2207.0
 (Enter /LUSTRE/yoltla/nc/app/gaussian/09/g09/l601.exe)
 Copying SCF densities to generalized density rwf, IOpCl= 1 IROHF=0.

 **********************************************************************

            Population analysis using the SCF density.

 **********************************************************************

 Orbital symmetries:
 Alpha Orbitals:
       Occupied  (A) (A) (A) (A) (A) (A) (A) (A) (A) (A) (A) (A)
                 (A) (A) (A) (A) (A) (A) (A) (A) (A) (A) (A) (A)
                 (A) (A) (A) (A) (A) (A) (A) (A) (A) (A) (A) (A)
                 (A) (A) (A) (A) (A) (A) (A) (A) (A) (A)
       Virtual   (A) (A) (A) (A) (A) (A) (A) (A) (A) (A) (A) (A)
                 (A) (A) (A) (A) (A) (A) (A) (A) (A) (A) (A) (A)
                 (A) (A) (A) (A) (A) (A) (A) (A) (A) (A) (A) (A)
                 (A) (A) (A) (A) (A) (A) (A) (A) (A) (A) (A) (A)
                 (A) (A) (A) (A) (A) (A) (A) (A) (A) (A) (A) (A)
                 (A) (A) (A) (A) (A) (A) (A) (A) (A) (A) (A) (A)
                 (A) (A) (A) (A) (A) (A) (A) (A) (A) (A) (A) (A)
                 (A) (A) (A) (A) (A) (A) (A) (A) (A) (A) (A) (A)
                 (A) (A) (A) (A) (A) (A) (A) (A) (A) (A) (A) (A)
                 (A) (A) (A) (A) (A) (A) (A) (A) (A) (A) (A) (A)
                 (A) (A) (A) (A) (A) (A) (A) (A) (A) (A) (A) (A)
                 (A) (A) (A) (A) (A) (A) (A) (A) (A) (A) (A) (A)
                 (A) (A) (A) (A) (A) (A) (A) (A) (A) (A) (A) (A)
                 (A) (A) (A) (A) (A) (A) (A) (A) (A) (A) (A) (A)
                 (A) (A) (A) (A) (A) (A) (A) (A) (A) (A) (A) (A)
                 (A) (A) (A) (A) (A) (A) (A) (A) (A) (A) (A) (A)
                 (A) (A) (A) (A) (A) (A) (A) (A) (A) (A) (A) (A)
                 (A) (A) (A) (A) (A) (A) (A) (A) (A) (A) (A) (A)
                 (A) (A) (A) (A) (A) (A) (A) (A) (A) (A) (A) (A)
                 (A) (A) (A) (A) (A) (A) (A) (A) (A) (A) (A) (A)
                 (A) (A) (A) (A) (A) (A) (A) (A) (A) (A) (A) (A)
                 (A) (A) (A) (A) (A) (A) (A) (A) (A) (A) (A) (A)
                 (A) (A) (A) (A) (A) (A) (A) (A) (A) (A) (A) (A)
                 (A) (A) (A) (A) (A) (A) (A) (A) (A) (A) (A) (A)
                 (A) (A) (A) (A) (A) (A) (A) (A) (A) (A) (A) (A)
 Beta  Orbitals:
       Occupied  (A) (A) (A) (A) (A) (A) (A) (A) (A) (A) (A) (A)
                 (A) (A) (A) (A) (A) (A) (A) (A) (A) (A) (A) (A)
                 (A) (A) (A) (A) (A) (A) (A) (A) (A) (A) (A) (A)
                 (A) (A) (A) (A) (A) (A) (A) (A) (A)
       Virtual   (A) (A) (A) (A) (A) (A) (A) (A) (A) (A) (A) (A)
                 (A) (A) (A) (A) (A) (A) (A) (A) (A) (A) (A) (A)
                 (A) (A) (A) (A) (A) (A) (A) (A) (A) (A) (A) (A)
                 (A) (A) (A) (A) (A) (A) (A) (A) (A) (A) (A) (A)
                 (A) (A) (A) (A) (A) (A) (A) (A) (A) (A) (A) (A)
                 (A) (A) (A) (A) (A) (A) (A) (A) (A) (A) (A) (A)
                 (A) (A) (A) (A) (A) (A) (A) (A) (A) (A) (A) (A)
                 (A) (A) (A) (A) (A) (A) (A) (A) (A) (A) (A) (A)
                 (A) (A) (A) (A) (A) (A) (A) (A) (A) (A) (A) (A)
                 (A) (A) (A) (A) (A) (A) (A) (A) (A) (A) (A) (A)
                 (A) (A) (A) (A) (A) (A) (A) (A) (A) (A) (A) (A)
                 (A) (A) (A) (A) (A) (A) (A) (A) (A) (A) (A) (A)
                 (A) (A) (A) (A) (A) (A) (A) (A) (A) (A) (A) (A)
                 (A) (A) (A) (A) (A) (A) (A) (A) (A) (A) (A) (A)
                 (A) (A) (A) (A) (A) (A) (A) (A) (A) (A) (A) (A)
                 (A) (A) (A) (A) (A) (A) (A) (A) (A) (A) (A) (A)
                 (A) (A) (A) (A) (A) (A) (A) (A) (A) (A) (A) (A)
                 (A) (A) (A) (A) (A) (A) (A) (A) (A) (A) (A) (A)
                 (A) (A) (A) (A) (A) (A) (A) (A) (A) (A) (A) (A)
                 (A) (A) (A) (A) (A) (A) (A) (A) (A) (A) (A) (A)
                 (A) (A) (A) (A) (A) (A) (A) (A) (A) (A) (A) (A)
                 (A) (A) (A) (A) (A) (A) (A) (A) (A) (A) (A) (A)
                 (A) (A) (A) (A) (A) (A) (A) (A) (A) (A) (A) (A)
                 (A) (A) (A) (A) (A) (A) (A) (A) (A) (A) (A) (A)
                 (A) (A) (A) (A) (A) (A) (A) (A) (A) (A) (A) (A)
                 (A)
 The electronic state is 2-A.
 Alpha  occ. eigenvalues --  -19.71376 -14.94081 -14.85813 -10.74396 -10.68013
 Alpha  occ. eigenvalues --  -10.66878 -10.62109 -10.61518 -10.61433 -10.60771
 Alpha  occ. eigenvalues --  -10.60051 -10.60026 -10.57219  -1.26269  -1.21320
 Alpha  occ. eigenvalues --   -1.05701  -0.99586  -0.92417  -0.89966  -0.89634
 Alpha  occ. eigenvalues --   -0.84238  -0.78232  -0.74893  -0.70972  -0.67946
 Alpha  occ. eigenvalues --   -0.64850  -0.62878  -0.61501  -0.58765  -0.57521
 Alpha  occ. eigenvalues --   -0.55709  -0.53853  -0.53832  -0.53195  -0.52621
 Alpha  occ. eigenvalues --   -0.51078  -0.48389  -0.47536  -0.47351  -0.47192
 Alpha  occ. eigenvalues --   -0.44740  -0.43194  -0.38577  -0.37674  -0.35312
 Alpha  occ. eigenvalues --   -0.31438
 Alpha virt. eigenvalues --   -0.03142  -0.01707   0.00074   0.04305   0.04689
 Alpha virt. eigenvalues --    0.05711   0.06316   0.07506   0.08097   0.08311
 Alpha virt. eigenvalues --    0.08433   0.09674   0.09896   0.10032   0.10822
 Alpha virt. eigenvalues --    0.11633   0.12145   0.12717   0.13239   0.13470
 Alpha virt. eigenvalues --    0.14447   0.14962   0.16029   0.16422   0.16723
 Alpha virt. eigenvalues --    0.16841   0.17171   0.17857   0.18388   0.19165
 Alpha virt. eigenvalues --    0.19417   0.20454   0.21216   0.21411   0.21912
 Alpha virt. eigenvalues --    0.22199   0.22697   0.23049   0.23690   0.24184
 Alpha virt. eigenvalues --    0.24358   0.24471   0.24980   0.26114   0.26581
 Alpha virt. eigenvalues --    0.26747   0.26944   0.27603   0.27678   0.28253
 Alpha virt. eigenvalues --    0.28325   0.28939   0.29063   0.29716   0.30007
 Alpha virt. eigenvalues --    0.30619   0.31115   0.31342   0.31758   0.32594
 Alpha virt. eigenvalues --    0.33232   0.33416   0.34110   0.34814   0.35540
 Alpha virt. eigenvalues --    0.35703   0.36754   0.37206   0.39252   0.39966
 Alpha virt. eigenvalues --    0.40189   0.42426   0.42799   0.44576   0.45596
 Alpha virt. eigenvalues --    0.47311   0.48226   0.49833   0.51189   0.52211
 Alpha virt. eigenvalues --    0.52860   0.53657   0.54804   0.56514   0.57060
 Alpha virt. eigenvalues --    0.58160   0.58578   0.60134   0.60281   0.61581
 Alpha virt. eigenvalues --    0.62389   0.63089   0.63530   0.63691   0.64010
 Alpha virt. eigenvalues --    0.66640   0.67161   0.68149   0.69050   0.70649
 Alpha virt. eigenvalues --    0.71876   0.72217   0.73226   0.74268   0.74875
 Alpha virt. eigenvalues --    0.75741   0.76581   0.77758   0.78812   0.80602
 Alpha virt. eigenvalues --    0.81906   0.82701   0.84763   0.85168   0.85899
 Alpha virt. eigenvalues --    0.87113   0.88561   0.89278   0.89478   0.89795
 Alpha virt. eigenvalues --    0.91539   0.93049   0.93302   0.95173   0.96181
 Alpha virt. eigenvalues --    0.99038   1.00505   1.01016   1.03114   1.03285
 Alpha virt. eigenvalues --    1.04403   1.05507   1.07408   1.07998   1.12404
 Alpha virt. eigenvalues --    1.12714   1.13797   1.14877   1.16105   1.17534
 Alpha virt. eigenvalues --    1.18545   1.19427   1.22643   1.23560   1.25989
 Alpha virt. eigenvalues --    1.30655   1.31574   1.32823   1.35831   1.37026
 Alpha virt. eigenvalues --    1.42008   1.43577   1.45234   1.46046   1.50354
 Alpha virt. eigenvalues --    1.51638   1.52852   1.53989   1.54300   1.55942
 Alpha virt. eigenvalues --    1.58342   1.60646   1.60784   1.61445   1.61858
 Alpha virt. eigenvalues --    1.63192   1.64306   1.65973   1.66918   1.67690
 Alpha virt. eigenvalues --    1.70009   1.71292   1.72549   1.76140   1.76904
 Alpha virt. eigenvalues --    1.78201   1.80367   1.81232   1.82247   1.83320
 Alpha virt. eigenvalues --    1.84630   1.85570   1.88935   1.91222   1.92301
 Alpha virt. eigenvalues --    1.94263   1.95142   1.96242   1.97665   1.98555
 Alpha virt. eigenvalues --    2.01073   2.01852   2.02112   2.02699   2.05584
 Alpha virt. eigenvalues --    2.07708   2.09311   2.12107   2.12480   2.14612
 Alpha virt. eigenvalues --    2.16856   2.19168   2.23149   2.24815   2.26639
 Alpha virt. eigenvalues --    2.27902   2.30259   2.34741   2.40641   2.43699
 Alpha virt. eigenvalues --    2.44290   2.47993   2.50713   2.51244   2.53288
 Alpha virt. eigenvalues --    2.54624   2.55171   2.56677   2.59438   2.61209
 Alpha virt. eigenvalues --    2.62265   2.64335   2.67169   2.68329   2.70302
 Alpha virt. eigenvalues --    2.70471   2.71923   2.73381   2.74633   2.76219
 Alpha virt. eigenvalues --    2.78228   2.80556   2.81243   2.82341   2.82800
 Alpha virt. eigenvalues --    2.84000   2.85891   2.87254   2.88703   2.91409
 Alpha virt. eigenvalues --    2.92931   2.94125   2.95693   2.96883   2.97865
 Alpha virt. eigenvalues --    2.98462   2.98786   3.00511   3.03079   3.06476
 Alpha virt. eigenvalues --    3.11136   3.19501   3.23920   3.26853   3.32272
 Alpha virt. eigenvalues --    3.38255   3.41060   3.43361   3.46204   3.53550
 Alpha virt. eigenvalues --    3.57602   3.59653   3.62039   3.63392   3.71491
 Alpha virt. eigenvalues --    3.82361   3.88254   3.90764   3.91888   3.95755
 Alpha virt. eigenvalues --    4.01247   4.02178   4.07347   4.09126   4.11876
 Alpha virt. eigenvalues --    4.15928   4.22505   4.24807   4.26753   4.36058
 Alpha virt. eigenvalues --    4.63324   4.85901   5.07386   5.10196   5.32149
 Alpha virt. eigenvalues --    5.42271   5.84372  23.79495  24.01511  24.05888
 Alpha virt. eigenvalues --   24.06409  24.08073  24.08864  24.15416  24.16529
 Alpha virt. eigenvalues --   24.28545  24.35171  35.68149  35.75773  50.24139
  Beta  occ. eigenvalues --  -19.71196 -14.93471 -14.85863 -10.74440 -10.67987
  Beta  occ. eigenvalues --  -10.66722 -10.61735 -10.61329 -10.61249 -10.60783
  Beta  occ. eigenvalues --  -10.60164 -10.60143 -10.57226  -1.25705  -1.20683
  Beta  occ. eigenvalues --   -1.05036  -0.98799  -0.92168  -0.89542  -0.89034
  Beta  occ. eigenvalues --   -0.83527  -0.77720  -0.74423  -0.70553  -0.67617
  Beta  occ. eigenvalues --   -0.64599  -0.61122  -0.61067  -0.58500  -0.57374
  Beta  occ. eigenvalues --   -0.55435  -0.53673  -0.53047  -0.52269  -0.51707
  Beta  occ. eigenvalues --   -0.50882  -0.47724  -0.47316  -0.47162  -0.44859
  Beta  occ. eigenvalues --   -0.44562  -0.43041  -0.37418  -0.35431  -0.34677
  Beta virt. eigenvalues --   -0.16272  -0.01398  -0.00365   0.01413   0.04251
  Beta virt. eigenvalues --    0.05708   0.06389   0.06820   0.07494   0.08130
  Beta virt. eigenvalues --    0.08269   0.08428   0.09699   0.09931   0.09979
  Beta virt. eigenvalues --    0.10787   0.11757   0.12210   0.12901   0.13305
  Beta virt. eigenvalues --    0.13454   0.14489   0.15039   0.16061   0.16780
  Beta virt. eigenvalues --    0.16856   0.17171   0.17479   0.18055   0.18500
  Beta virt. eigenvalues --    0.19329   0.19372   0.20486   0.21379   0.21488
  Beta virt. eigenvalues --    0.21926   0.22188   0.22897   0.23134   0.23836
  Beta virt. eigenvalues --    0.24414   0.24495   0.24821   0.25000   0.26162
  Beta virt. eigenvalues --    0.26637   0.26900   0.27007   0.27723   0.27761
  Beta virt. eigenvalues --    0.28394   0.28519   0.28956   0.29206   0.29748
  Beta virt. eigenvalues --    0.30153   0.30708   0.31249   0.31434   0.31785
  Beta virt. eigenvalues --    0.32702   0.33333   0.33622   0.34211   0.35010
  Beta virt. eigenvalues --    0.35630   0.35864   0.36941   0.37336   0.39472
  Beta virt. eigenvalues --    0.40104   0.40334   0.42651   0.42863   0.44669
  Beta virt. eigenvalues --    0.45672   0.47412   0.48324   0.49947   0.51455
  Beta virt. eigenvalues --    0.52329   0.52912   0.53820   0.55062   0.56916
  Beta virt. eigenvalues --    0.57270   0.58288   0.58633   0.60442   0.60723
  Beta virt. eigenvalues --    0.61775   0.62498   0.63189   0.63793   0.64180
  Beta virt. eigenvalues --    0.64356   0.66770   0.67290   0.68315   0.69213
  Beta virt. eigenvalues --    0.70754   0.72086   0.72437   0.73280   0.74394
  Beta virt. eigenvalues --    0.74963   0.75854   0.76773   0.77849   0.78943
  Beta virt. eigenvalues --    0.80651   0.81944   0.82632   0.84867   0.85502
  Beta virt. eigenvalues --    0.85971   0.87170   0.88782   0.89654   0.89836
  Beta virt. eigenvalues --    0.90990   0.91632   0.93113   0.93350   0.95458
  Beta virt. eigenvalues --    0.96465   0.99165   1.00941   1.01117   1.03396
  Beta virt. eigenvalues --    1.03844   1.04630   1.05693   1.07784   1.08276
  Beta virt. eigenvalues --    1.12697   1.13005   1.14345   1.15360   1.16466
  Beta virt. eigenvalues --    1.17912   1.18973   1.19778   1.23154   1.23756
  Beta virt. eigenvalues --    1.26184   1.30796   1.31781   1.33078   1.36269
  Beta virt. eigenvalues --    1.37236   1.42469   1.43693   1.45460   1.46414
  Beta virt. eigenvalues --    1.50484   1.51810   1.52942   1.54103   1.54395
  Beta virt. eigenvalues --    1.56156   1.58610   1.60899   1.61076   1.61669
  Beta virt. eigenvalues --    1.62022   1.63295   1.64596   1.66113   1.67127
  Beta virt. eigenvalues --    1.67868   1.70219   1.71360   1.72833   1.76336
  Beta virt. eigenvalues --    1.77008   1.78478   1.80561   1.81575   1.82473
  Beta virt. eigenvalues --    1.83599   1.84851   1.85839   1.89064   1.91683
  Beta virt. eigenvalues --    1.92490   1.94478   1.95572   1.96450   1.97883
  Beta virt. eigenvalues --    1.98664   2.01556   2.02306   2.02556   2.02859
  Beta virt. eigenvalues --    2.05712   2.08046   2.09862   2.12328   2.12731
  Beta virt. eigenvalues --    2.14785   2.16945   2.19270   2.23901   2.25098
  Beta virt. eigenvalues --    2.26828   2.27998   2.30574   2.35006   2.41130
  Beta virt. eigenvalues --    2.43963   2.44575   2.48128   2.50881   2.51256
  Beta virt. eigenvalues --    2.53832   2.54646   2.55470   2.56854   2.59849
  Beta virt. eigenvalues --    2.61249   2.62481   2.64444   2.67399   2.68474
  Beta virt. eigenvalues --    2.70632   2.71359   2.72222   2.73623   2.74705
  Beta virt. eigenvalues --    2.76305   2.78227   2.80645   2.81341   2.82427
  Beta virt. eigenvalues --    2.82995   2.84628   2.87456   2.87986   2.88879
  Beta virt. eigenvalues --    2.91942   2.93571   2.95013   2.95921   2.97728
  Beta virt. eigenvalues --    2.98081   2.98839   2.99399   3.00682   3.03226
  Beta virt. eigenvalues --    3.06599   3.12228   3.19610   3.23942   3.26868
  Beta virt. eigenvalues --    3.32284   3.38215   3.41669   3.43342   3.46219
  Beta virt. eigenvalues --    3.53450   3.57605   3.59656   3.62137   3.63452
  Beta virt. eigenvalues --    3.71503   3.83908   3.88968   3.90924   3.92097
  Beta virt. eigenvalues --    3.96005   4.01518   4.02883   4.07398   4.09197
  Beta virt. eigenvalues --    4.11690   4.15985   4.22790   4.24879   4.26828
  Beta virt. eigenvalues --    4.36111   4.63387   4.86548   5.07735   5.11329
  Beta virt. eigenvalues --    5.32442   5.42452   5.84525  23.79669  24.01505
  Beta virt. eigenvalues --   24.06039  24.06602  24.08186  24.08951  24.15403
  Beta virt. eigenvalues --   24.17117  24.28627  24.35311  35.68005  35.75737
  Beta virt. eigenvalues --   50.24041
          Condensed to atoms (all electrons):
              1          2          3          4          5          6
     1  C    5.686012   0.486949   0.477981  -1.224071   0.398387  -0.118382
     2  C    0.486949  10.842374  -3.927153  -1.790172  -1.405385   1.285033
     3  C    0.477981  -3.927153  19.911405  -2.576077  -4.700417  -2.879925
     4  C   -1.224071  -1.790172  -2.576077  15.348110  -1.277352  -0.826965
     5  C    0.398387  -1.405385  -4.700417  -1.277352  15.285472  -3.503577
     6  C   -0.118382   1.285033  -2.879925  -0.826965  -3.503577  12.339598
     7  H    0.361554   0.041327  -0.058287   0.041069  -0.076346   0.051950
     8  H   -0.001903   0.394154  -0.063396   0.040935   0.021229  -0.028472
     9  H   -0.011363  -0.052846   0.309727   0.127636   0.012938  -0.006136
    10  H   -0.011860   0.001904  -0.038906   0.043107   0.438801  -0.072125
    11  C   -0.061762   0.315677  -0.887659  -0.502241   0.384142   0.021730
    12  C    0.034911  -0.185622   0.475505   0.454202  -0.097743  -0.262780
    13  C   -0.011000  -0.020534   0.105169  -0.050726  -0.334707  -0.010730
    14  N    0.070027   0.612682   0.200853  -1.727210   0.025346   0.253007
    15  N   -0.080236  -0.186521  -0.576164   0.657137   0.217423   0.073258
    16  O   -0.002739  -0.010697  -0.024737  -0.200985   0.125342   0.048794
    17  H    0.000025   0.000656   0.000076  -0.015089   0.007017   0.000744
    18  H   -0.000029   0.000957   0.000675  -0.016771   0.005884   0.000784
    19  H    0.010698  -0.026087   0.015870   0.025900  -0.040069   0.376520
    20  C   -0.002767  -0.057904  -0.084458   0.020148  -0.001298   0.000391
    21  H    0.000030  -0.000497  -0.000609   0.003527  -0.000050  -0.000106
    22  H   -0.000048   0.001223  -0.000224   0.000238  -0.000697  -0.000017
    23  H   -0.000109   0.000903  -0.004523   0.004133   0.000574   0.000221
              7          8          9         10         11         12
     1  C    0.361554  -0.001903  -0.011363  -0.011860  -0.061762   0.034911
     2  C    0.041327   0.394154  -0.052846   0.001904   0.315677  -0.185622
     3  C   -0.058287  -0.063396   0.309727  -0.038906  -0.887659   0.475505
     4  C    0.041069   0.040935   0.127636   0.043107  -0.502241   0.454202
     5  C   -0.076346   0.021229   0.012938   0.438801   0.384142  -0.097743
     6  C    0.051950  -0.028472  -0.006136  -0.072125   0.021730  -0.262780
     7  H    0.427139  -0.005400  -0.000127  -0.000120   0.000043  -0.000145
     8  H   -0.005400   0.437863  -0.004972   0.000044   0.000968   0.000219
     9  H   -0.000127  -0.004972   0.417946   0.000096   0.004911  -0.005798
    10  H   -0.000120   0.000044   0.000096   0.424585   0.016600   0.005182
    11  C    0.000043   0.000968   0.004911   0.016600   6.670329  -1.972311
    12  C   -0.000145   0.000219  -0.005798   0.005182  -1.972311   9.871784
    13  C    0.000117  -0.000078   0.003021  -0.003255   0.806358  -1.577450
    14  N    0.000386  -0.003087  -0.029061  -0.025988   0.178157  -0.582287
    15  N    0.000185   0.001564   0.007842   0.000909   0.072203  -0.005724
    16  O    0.000002  -0.000013  -0.000102   0.000446   0.496808   0.044540
    17  H    0.000000   0.000000   0.000007  -0.000017  -0.011333   0.386641
    18  H    0.000000   0.000000   0.000006  -0.000015  -0.002924   0.368939
    19  H   -0.005552  -0.000084   0.000023  -0.005454   0.001356  -0.000300
    20  C    0.000002   0.000131   0.001720  -0.000086  -0.015741  -0.100892
    21  H    0.000000   0.000000   0.000002   0.000000  -0.013094   0.066108
    22  H    0.000000   0.000000   0.000015   0.000000   0.013727  -0.049557
    23  H    0.000000   0.000000  -0.000018   0.000000   0.012156  -0.025288
             13         14         15         16         17         18
     1  C   -0.011000   0.070027  -0.080236  -0.002739   0.000025  -0.000029
     2  C   -0.020534   0.612682  -0.186521  -0.010697   0.000656   0.000957
     3  C    0.105169   0.200853  -0.576164  -0.024737   0.000076   0.000675
     4  C   -0.050726  -1.727210   0.657137  -0.200985  -0.015089  -0.016771
     5  C   -0.334707   0.025346   0.217423   0.125342   0.007017   0.005884
     6  C   -0.010730   0.253007   0.073258   0.048794   0.000744   0.000784
     7  H    0.000117   0.000386   0.000185   0.000002   0.000000   0.000000
     8  H   -0.000078  -0.003087   0.001564  -0.000013   0.000000   0.000000
     9  H    0.003021  -0.029061   0.007842  -0.000102   0.000007   0.000006
    10  H   -0.003255  -0.025988   0.000909   0.000446  -0.000017  -0.000015
    11  C    0.806358   0.178157   0.072203   0.496808  -0.011333  -0.002924
    12  C   -1.577450  -0.582287  -0.005724   0.044540   0.386641   0.368939
    13  C    7.729523  -0.096251   0.055082  -0.027023  -0.032089  -0.016024
    14  N   -0.096251   8.317160  -0.286921  -0.037545   0.020424   0.019503
    15  N    0.055082  -0.286921   6.964455  -0.009098   0.002332   0.002186
    16  O   -0.027023  -0.037545  -0.009098   7.919122  -0.007067  -0.007911
    17  H   -0.032089   0.020424   0.002332  -0.007067   0.365541  -0.006556
    18  H   -0.016024   0.019503   0.002186  -0.007911  -0.006556   0.367139
    19  H    0.000341  -0.002264  -0.000130   0.000229   0.000000   0.000000
    20  C   -0.771413  -0.264796   0.061629  -0.004991  -0.013665  -0.017496
    21  H   -0.236542  -0.001940   0.025027   0.000089  -0.000794  -0.001397
    22  H    0.114701  -0.008067  -0.001119  -0.000058   0.000005   0.000659
    23  H    0.076761  -0.000471  -0.016255  -0.000018   0.000149   0.000019
             19         20         21         22         23
     1  C    0.010698  -0.002767   0.000030  -0.000048  -0.000109
     2  C   -0.026087  -0.057904  -0.000497   0.001223   0.000903
     3  C    0.015870  -0.084458  -0.000609  -0.000224  -0.004523
     4  C    0.025900   0.020148   0.003527   0.000238   0.004133
     5  C   -0.040069  -0.001298  -0.000050  -0.000697   0.000574
[...]
 6,-0.00033106,-0.03255482,0.01478412,-0.00010760,-0.04943056,-0.146979
 17,-0.00439136,0.05240907,0.00592187,0.00082382,-0.00792672,-0.0191577
 9,-0.00097202,-0.00016740,0.00023410,0.00001808,-0.00193857,-0.0002680
 0,-0.00001165,0.00164927,-0.00071503,0.00008721,-0.00350817,0.00039113
 ,0.00003031,-0.01915640,-0.04412341,0.00049207,-0.01860605,-0.00858656
 ,-0.00088071,0.05265694,0.00719314,0.00078366,0.01925405,0.48778965,0.
 00015284,-0.00020633,-0.00067051,-0.00056857,-0.00019104,0.00435100,-0
 .00200395,-0.00031700,0.00864255,-0.00480914,-0.00417795,-0.04665484,0
 .00123840,0.00047528,0.00043281,-0.00008819,-0.00065586,0.00360068,0.0
 0000333,0.00002340,-0.00032740,-0.00007099,0.00001183,-0.00053378,0.00
 010062,0.00010802,-0.00258955,-0.00009776,0.00005837,-0.00140012,-0.00
 185515,0.00111996,-0.06403777,-0.00115764,-0.00094724,0.01021552,0.000
 44996,0.00063485,0.00223136,0.00851208,0.01428489,0.11272319,0.0099062
 7,0.00622415,0.00036526,-0.02129404,0.01287086,0.00025801,0.01625775,0
 .02089318,0.00106934,-0.08772032,0.02993424,0.00005590,0.02788497,-0.0
 1918262,-0.00047349,-0.02375880,-0.01848433,-0.00099831,-0.00046555,0.
 00004362,-0.00000784,0.00000188,-0.00057798,-0.00002815,-0.00626754,0.
 00007241,-0.00009247,-0.00100755,0.00056153,0.00001874,0.01607858,0.03
 124800,0.00122298,-0.02787847,-0.03522006,-0.00200514,-0.43998680,-0.1
 6203898,-0.01051489,-0.10162594,0.02624424,0.00043359,0.68113174,-0.00
 394787,-0.00113754,-0.00007810,0.00710065,-0.00347547,-0.00002894,-0.0
 1137791,-0.00944629,-0.00041133,0.03378820,0.01735864,0.00110683,-0.01
 546736,0.00518475,-0.00022215,0.00638096,0.00697372,0.00031536,0.00008
 456,0.00002350,-0.00000444,-0.00009307,0.00009189,-0.00001898,-0.00284
 550,0.00055941,-0.00006498,0.00015759,-0.00037139,0.00001938,0.0046088
 1,-0.06152382,-0.00249562,-0.03899072,-0.02306544,-0.00266862,-0.12849
 288,-0.17526525,-0.00571785,-0.00119833,-0.18737227,-0.00504570,0.1248
 4555,0.42923223,-0.00002910,0.00004694,-0.00031942,0.00002886,0.000047
 04,-0.00057033,-0.00019923,-0.00000187,-0.00256295,0.00024117,0.001044
 01,-0.00143186,-0.00032264,-0.00027575,0.00640744,-0.00005111,0.000013
 88,0.00075375,-0.00000580,-0.00000609,0.00019149,-0.00001024,-0.000025
 37,0.00055754,-0.00020150,-0.00003282,0.00137775,0.00000244,0.00002440
 ,-0.00084259,0.00028422,-0.00217855,0.00695948,-0.00220683,-0.00260771
 ,0.03553219,-0.00922681,-0.00611068,-0.06260767,-0.00061849,-0.0047364
 5,-0.05281290,0.01179565,0.01480251,0.07265634,-0.00107560,0.00045102,
 0.00000473,0.00169535,-0.00079626,-0.00000868,-0.00004801,-0.00148459,
 -0.00005139,-0.00047995,0.00575848,0.00022384,-0.00889896,0.00364543,0
 .00004094,0.00039121,-0.00236403,-0.00008763,-0.00007971,-0.00027644,-
 0.00001166,0.00014275,0.00002436,0.00000103,-0.00004761,-0.00015797,-0
 .00000773,-0.00655288,-0.00612021,-0.00032448,-0.23123225,0.25371437,0
 .00744141,-0.01070998,0.04383028,0.00125706,-0.01577929,-0.00473994,-0
 .00038112,0.03883357,-0.00113435,0.00022709,0.00211092,-0.00429443,-0.
 00015607,0.22523641,0.00242707,0.00052820,0.00005995,-0.00702458,0.003
 58265,0.00005660,0.00225467,0.00416607,0.00020971,0.00939410,-0.002355
 98,0.00004290,0.00540215,-0.00027339,0.00001809,-0.00613777,-0.0060607
 9,-0.00030114,-0.00008426,0.00001854,-0.00000319,-0.00028085,-0.000251
 70,-0.00001640,0.00022757,0.00025163,0.00000890,-0.00533366,-0.0013535
 4,-0.00014964,0.29521015,-0.64539084,-0.01786252,0.02957617,-0.0143228
 0,-0.00090937,0.00795971,0.00669197,0.00028405,-0.02060582,-0.11365447
 ,-0.00500239,-0.01778862,0.00033944,-0.00027868,-0.29205184,0.77202244
 ,0.00008248,0.00003472,-0.00027023,-0.00024040,0.00012830,-0.00010509,
 0.00008600,0.00015545,-0.00051544,0.00035578,0.00000660,-0.00064107,0.
 00009241,-0.00000584,0.00085413,-0.00022200,-0.00024487,-0.00008943,-0
 .00000505,-0.00000460,0.00006191,-0.00001005,-0.00001361,0.00011788,0.
 00000704,0.00000420,0.00008381,-0.00029386,-0.00015084,0.00086565,0.00
 897992,-0.01835642,-0.06878448,0.00073342,-0.00075300,0.02008486,0.000
 08653,0.00013665,0.00150836,-0.00048661,-0.00478083,0.01481537,-0.0006
 5779,-0.00011451,0.00208349,-0.00845860,0.02406732,0.02901771,-0.00008
 600,-0.00006464,-0.00000347,0.00015363,-0.00020171,0.00005422,-0.00052
 844,-0.00011039,-0.00011524,0.00071494,-0.00101597,-0.00057098,-0.0002
 4303,0.00011944,0.00007934,0.00018255,0.00019013,0.00004648,0.00000227
 ,0.00000201,-0.00000934,-0.00002656,0.00000363,0.00000373,-0.00001633,
 -0.00000389,0.00000037,0.00000762,0.00000911,-0.00004960,-0.01478229,-
 0.00948032,0.02632095,-0.10623045,-0.04275597,0.11074011,-0.00216202,-
 0.00528906,-0.00315776,-0.00586342,-0.00065527,-0.00304503,0.00189575,
 0.00142225,0.00182828,0.00219891,-0.00097993,-0.00344400,0.11701568,0.
 00016883,0.00005687,0.00001362,-0.00034896,0.00023556,0.00004184,0.000
 34916,0.00015527,0.00002132,-0.00084377,0.00049077,0.00034377,0.000462
 68,-0.00021247,-0.00008962,-0.00030729,-0.00024208,-0.00001484,-0.0000
 0707,0.00000484,-0.00001386,0.00000776,-0.00000741,0.00000132,-0.00000
 637,0.00006634,-0.00004662,-0.00007145,0.00001543,0.00001836,0.0006018
 0,0.00453141,-0.01305571,-0.04361177,-0.08090597,0.08401618,-0.0169082
 1,-0.00876543,0.02796827,0.00297847,0.00010518,0.00340605,-0.00141358,
 -0.00473549,-0.00638898,0.00104665,-0.00175655,0.00185243,0.05291510,0
 .08580978,0.00006944,0.00002002,-0.00000112,-0.00019686,0.00007541,0.0
 0004783,0.00005198,0.00013508,0.00000370,-0.00020457,-0.00023666,-0.00
 026310,0.00019546,-0.00011652,-0.00000572,-0.00017335,-0.00014655,-0.0
 0000327,-0.00000522,0.00000048,-0.00000583,-0.00001119,-0.00000610,-0.
 00000260,0.00000099,0.00002054,-0.00002228,0.00002141,0.00000055,0.000
 00232,0.00009135,-0.00270259,0.00117201,0.11000410,0.08263326,-0.21310
 873,-0.00240378,0.00099101,0.00376011,-0.00054597,-0.00121014,-0.00081
 773,-0.00249198,-0.00125396,-0.00188756,-0.00029591,0.00097645,0.00050
 226,-0.11714392,-0.08883098,0.22985776,-0.00008463,-0.00006576,-0.0000
 0265,0.00014918,-0.00019616,-0.00006747,-0.00053776,-0.00012154,0.0000
 9320,0.00071111,-0.00105732,0.00051215,-0.00023859,0.00012475,-0.00007
 487,0.00018016,0.00019081,-0.00002696,0.00000193,0.00000135,0.00001002
 ,-0.00002661,0.00000381,-0.00000408,-0.00001619,-0.00000354,-0.0000001
 4,0.00000742,0.00000571,0.00005011,-0.01413319,-0.00753820,-0.02735000
 ,-0.10092548,-0.03259638,-0.11071319,-0.00227523,-0.00547547,0.0026327
 8,-0.00594548,-0.00090341,0.00287404,0.00188191,0.00152254,-0.00163454
 ,0.00210664,-0.00120731,0.00340606,0.00803032,0.00480161,0.01281858,0.
 11137025,0.00017328,0.00006054,-0.00000383,-0.00035964,0.00024366,-0.0
 0003461,0.00035951,0.00017082,0.00000227,-0.00086039,0.00049346,-0.000
 31468,0.00047454,-0.00022910,0.00008537,-0.00031946,-0.00025329,-0.000
 01129,-0.00000760,0.00000369,0.00001467,0.00000689,-0.00000769,-0.0000
 0159,-0.00000732,0.00006374,0.00005308,-0.00006945,0.00001639,-0.00001
 939,0.00030740,0.00334416,0.01325312,-0.03347329,-0.06913957,-0.073930
 72,-0.01635497,-0.00652231,-0.02915005,0.00301213,0.00026220,-0.003256
 81,-0.00174684,-0.00528712,0.00610033,0.00106716,-0.00153478,-0.001982
 74,0.00551891,0.00425890,0.00944207,0.04211495,0.07327779,-0.00005687,
 -0.00001661,-0.00000413,0.00017104,-0.00006439,0.00004250,-0.00003871,
 -0.00012417,-0.00000794,0.00016161,0.00026621,-0.00025485,-0.00016371,
 0.00010273,0.00000483,0.00015125,0.00013079,0.00001089,0.00000435,0.00
 000021,-0.00000411,0.00001108,0.00000555,-0.00000219,-0.00000132,-0.00
 001442,-0.00001954,-0.00002668,0.00000086,0.00000126,-0.00044554,0.002
 69288,0.00171719,-0.11003130,-0.07252701,-0.23012430,0.00103941,-0.001
 89902,0.00162021,0.00064929,0.00126612,-0.00089038,0.00245441,0.001034
 31,-0.00131631,0.00041644,-0.00116236,0.00036980,-0.01177470,-0.007543
 37,-0.01939036,0.11769844,0.07800446,0.24797871,0.01229234,-0.01281954
 ,-0.00038793,-0.00078648,-0.00306482,-0.00019962,-0.00028279,-0.000380
 64,-0.00000547,-0.00421470,-0.00213415,-0.00023917,-0.01554555,0.02430
 175,0.00069115,-0.17605950,0.14556864,0.00399332,0.00049484,0.00078787
 ,0.00007322,0.00047120,-0.00057675,-0.00001725,0.00008239,0.00009208,0
 .00001134,0.00135686,-0.00007784,0.00007858,0.00018232,0.00043552,0.00
 001746,-0.00005302,-0.00005922,-0.00000405,0.00011972,0.00023739,0.000
 01399,-0.00044472,0.00137883,0.00004002,-0.00056681,-0.00026852,-0.000
 00549,0.00003077,-0.00020267,-0.00000812,-0.00000541,-0.00000368,-0.00
 000783,-0.00000590,-0.00000409,0.00000764,0.18304138,0.01845521,-0.016
 74353,-0.00056021,-0.00254972,-0.00374061,-0.00041165,-0.00094863,0.00
 003824,0.00004942,-0.00224988,0.00026409,-0.00038007,-0.00645607,0.009
 33196,0.00008888,0.14604592,-0.24121458,-0.00597525,-0.00003126,0.0013
 0742,0.00017209,0.00091856,-0.00072914,-0.00001970,0.00009427,0.000063
 65,0.00002522,0.00035804,0.00053948,0.00023988,-0.00009484,-0.00026410
 ,-0.00002192,0.00000965,-0.00000184,0.00001029,-0.00024229,-0.00004286
 ,-0.00000045,-0.00023881,0.00103660,0.00001662,0.00010772,-0.00012125,
 0.00002790,-0.00000394,0.00016037,0.00000237,-0.00000218,0.00000379,0.
 00000146,-0.00000226,0.00000419,-0.00000173,-0.15320886,0.25013756,0.0
 0081224,-0.00092052,0.00347989,-0.00017828,-0.00041806,0.00619541,-0.0
 0002187,0.00005208,-0.00142050,-0.00025032,-0.00037851,0.00940906,-0.0
 0048450,0.00044865,0.00506869,0.00400505,-0.00598486,-0.04111492,0.000
 04201,0.00018145,-0.00317695,0.00004002,-0.00003749,0.00006829,0.00001
 110,0.00002525,-0.00056978,0.00009498,0.00023440,-0.00559176,-0.000003
 64,-0.00001220,0.00022966,0.00000166,0.00000581,-0.00017721,-0.0000046
 0,0.00000766,-0.00015717,-0.00001869,0.00003529,0.00054153,0.00000565,
 0.00002412,-0.00084527,0.00000044,-0.00000011,0.00009167,-0.00000501,0
 .00000494,0.00000291,0.00000464,-0.00000503,0.00000271,-0.00404860,0.0
 0674572,0.02776235,0.00151746,0.00065520,0.00003931,-0.00346760,0.0017
 8276,0.00002430,0.00336399,0.00328761,0.00014018,-0.00619566,0.0008673
 1,-0.00002111,0.00401232,-0.00230838,-0.00003218,-0.00340890,-0.002910
 63,-0.00014956,-0.00006189,-0.00000701,-0.00000142,-0.00004458,-0.0000
 9653,-0.00000283,-0.00001174,-0.00001234,0.00000167,-0.00013282,0.0000
 3668,-0.00000178,-0.00301973,-0.00276921,-0.00012758,0.01138346,0.0002
 4172,0.00005726,-0.16592748,0.07933715,0.00192092,0.00466727,-0.006996
 31,-0.00039773,-0.04806881,0.02294659,0.00030507,0.00284563,-0.0014840
 2,-0.00002398,-0.00053102,0.00006979,0.00034403,-0.00051769,0.00007183
 ,-0.00035241,-0.00008142,0.00003951,-0.00000223,0.54132270,0.00017630,
 0.00005453,0.00000392,-0.00040684,0.00021981,-0.00000461,0.00038051,0.
 00024671,-0.00000605,-0.00019907,0.00142520,0.00002438,0.00010030,-0.0
 0040121,0.00003838,-0.00040561,-0.00018739,-0.00001014,-0.00001199,0.0
 0000048,0.00000194,-0.00001587,-0.00001500,0.00000244,0.00005149,0.000
 02416,0.00000956,-0.00003524,0.00001758,-0.00000658,-0.00604565,-0.006
 56873,-0.00030917,0.02412448,-0.01386499,-0.00047062,0.09240923,-0.174
 51139,-0.00259607,-0.00568110,0.00357514,-0.00051118,-0.00290267,0.013
 27857,0.00047439,0.00343050,-0.00054592,0.00001631,0.00010492,0.000925
 75,0.00025793,0.00013902,0.00085836,-0.00018636,-0.00004214,-0.0000022
 5,-0.00000911,0.04039128,0.59387514,0.00002478,0.00000952,0.00000692,-
 0.00005876,0.00001993,0.00022449,0.00004418,0.00001764,0.00079765,-0.0
 0008884,0.00003550,0.00068565,0.00006764,0.00001574,-0.00146063,-0.000
 05522,-0.00003808,-0.00008691,-0.00000059,0.00000254,-0.00006716,-0.00
 000014,0.00000147,-0.00008314,0.00000441,0.00000971,-0.00023188,-0.000
 00492,-0.00000606,0.00019005,-0.00025764,-0.00026630,-0.00031293,0.000
 95851,-0.00075547,0.00648321,0.00239044,-0.00274096,-0.07600674,-0.000
 33681,-0.00052886,0.01551846,-0.00066328,0.00078207,-0.00036736,0.0001
 5914,-0.00004256,0.00012016,0.00038512,-0.00108747,-0.00005656,-0.0003
 8665,0.00115850,-0.00000590,-0.00000496,-0.00000855,0.00022704,0.00152
 809,0.00244240,0.54004101,0.00001605,-0.00000704,-0.00000431,-0.000054
 05,0.00002581,-0.00000575,0.00001316,-0.00006152,-0.00014378,0.0005065
 9,0.00043026,-0.00015591,-0.00014777,-0.00002602,0.00020408,-0.0000303
 9,0.00001621,0.00002862,-0.00000201,0.,0.00000702,-0.00000602,-0.00000
 332,0.00001383,0.00000439,0.00002389,0.00003197,0.00000518,-0.00000233
 ,-0.00003392,-0.00059213,-0.00056606,-0.00024788,0.00052915,-0.0006261
 0,-0.00094897,-0.02106250,-0.00543728,0.02128606,-0.00192032,0.0014156
 2,-0.00209522,0.00004310,0.00217100,0.00133451,0.00012674,0.00024930,0
 .00007006,0.00016195,0.00042088,-0.00011562,0.00011959,-0.00019531,-0.
 00003314,-0.00001286,-0.00000034,-0.00003116,-0.13051908,-0.03117461,0
 .12777114,0.14650584,-0.00035416,-0.00014100,-0.00001245,0.00084593,-0
 .00044805,0.00001029,-0.00077311,-0.00072969,0.00001097,0.00108291,-0.
 00017375,0.00019368,-0.00088231,0.00049639,-0.00017644,0.00079247,0.00
 070258,0.00002177,0.00001425,0.00000122,-0.00000624,0.00001156,0.00002
 443,-0.00000450,-0.00001444,-0.00001663,-0.00001857,0.00002106,-0.0000
 0699,0.00002470,0.00025009,0.00032597,0.00006425,-0.00115573,-0.000377
 65,0.00109064,0.00819561,0.00606523,-0.02020300,-0.00020920,0.00076216
 ,0.00141657,0.00370587,-0.00139491,0.00034846,-0.00023323,0.00010692,-
 0.00002447,0.00021232,-0.00035301,-0.00005633,0.00009133,0.00018117,0.
 00002179,0.00001931,-0.00001314,0.00002868,-0.02874331,-0.06069091,0.0
 4447179,0.03082598,0.05816921,0.00005488,0.00002514,-0.00000167,-0.000
 12865,0.00006610,-0.00000148,0.00012000,0.00013824,-0.00003711,-0.0003
 4787,0.00000137,0.00004304,0.00015894,-0.00009484,0.00011011,-0.000132
 61,-0.00011410,-0.00002553,-0.00000216,-0.00000066,0.00000737,-0.00000
 172,-0.00000328,0.00000136,-0.00000104,-0.00000545,0.00001071,-0.00000
 410,0.00000028,0.00000191,0.00019475,0.00009392,0.00015099,0.00029282,
 0.00001409,0.00043297,-0.00035279,-0.00137748,0.00080202,0.00010482,-0
 .00030976,-0.00086460,-0.00147903,0.00018471,-0.00038476,-0.00001121,-
 0.00007139,-0.00002075,-0.00010888,-0.00011480,0.00011420,0.00001629,0
 .00007148,0.00006230,-0.00000278,0.00000207,-0.00001184,0.12790829,0.0
 4415522,-0.21340514,-0.13859513,-0.04761836,0.23077290,0.00001936,-0.0
 0000632,0.00000461,-0.00006002,0.00002894,0.00000688,0.00001146,-0.000
 06853,0.00014197,0.00049126,0.00041745,0.00019549,-0.00013543,-0.00001
 354,-0.00021089,-0.00003623,0.00001345,-0.00002769,-0.00000239,0.00000
 048,-0.00000710,-0.00000579,-0.00000260,-0.00001426,0.00000534,0.00002
 586,-0.00003014,0.00000425,-0.00000466,0.00003368,-0.00059155,-0.00057
 879,0.00018693,0.00051792,-0.00069359,0.00090379,-0.02056801,-0.003859
 47,-0.02214890,-0.00196246,0.00124264,0.00216940,0.00002870,0.00227250
 ,-0.00115971,0.00012800,0.00025089,-0.00004800,0.00011901,-0.00019484,
 0.00001981,0.00015666,0.00040886,0.00014823,-0.00001348,-0.00000287,0.
 00003099,-0.12462009,-0.02080066,-0.12757674,0.01162547,0.00220011,0.0
 1540248,0.14011095,-0.00034952,-0.00013879,-0.00000639,0.00083520,-0.0
 0044053,-0.00002482,-0.00075916,-0.00071306,-0.00008223,0.00105589,-0.
 00015983,-0.00018301,-0.00087251,0.00047404,0.00018451,0.00078064,0.00
 069109,0.00005138,0.00001403,0.00000070,0.00000621,0.00001127,0.000023
 73,0.00000637,-0.00001488,-0.00001825,0.00001627,0.00002123,-0.0000051
 9,-0.00002474,0.00026615,0.00033673,-0.00004268,-0.00110501,-0.0002892
 3,-0.00117264,0.00769587,0.00443706,0.02067732,-0.00016844,0.00083612,
 -0.00129624,0.00359462,-0.00135724,-0.00033752,-0.00023437,0.00009974,
 0.00002793,0.00009211,0.00018703,-0.00000964,0.00020245,-0.00036436,0.
 00002490,0.00001967,-0.00001080,-0.00002807,-0.01836059,-0.05497676,-0
 .03300824,0.00321148,0.00006713,0.00496908,0.01958982,0.05207915,-0.00
 007840,-0.00003440,-0.00000609,0.00018766,-0.00009587,-0.00000531,-0.0
 0017500,-0.00018770,-0.00005949,0.00043218,-0.00000814,0.00004837,-0.0
 0022634,0.00011995,0.00012046,0.00018720,0.00016525,-0.00000972,0.0000
 0256,0.00000009,0.00000773,0.00000232,0.00000456,0.00000177,0.00000005
 ,0.00000349,0.00001195,0.00000564,-0.00000083,0.00000101,-0.00019089,-
 0.00009240,0.00014428,-0.00037264,-0.00008405,0.00035388,0.00043260,0.
 00155947,0.00193894,-0.00013688,0.00046030,-0.00089182,0.00175291,-0.0
 0020334,-0.00041487,-0.00000286,0.00008578,-0.00001432,-0.00000758,-0.
 00006679,0.00005609,0.00012517,0.00008856,0.00013122,0.00000445,-0.000
 00230,-0.00001323,-0.12753718,-0.03274665,-0.22509614,-0.01445252,-0.0
 0336234,-0.02069774,0.13829865,0.03466910,0.24334123,0.00003482,0.0000
 2086,0.00000145,-0.00010317,0.00004775,0.00000070,0.00007485,0.0001048
 0,0.00000402,-0.00005971,-0.00019486,-0.00001024,0.00011727,-0.0000170
 9,0.00000089,-0.00008951,-0.00011143,-0.00000472,-0.00000048,-0.000001
 37,0.00000003,-0.00000242,-0.00000224,-0.00000013,-0.00000227,-0.00000
 392,0.00000001,0.00001117,-0.00000511,-0.00000032,0.00128467,0.0017149
 2,0.00007317,-0.00445586,0.00155246,-0.00001799,0.01079030,0.02992290,
 0.00126721,0.00036890,-0.00063970,-0.00001200,0.00141906,-0.00032461,0
 .00000735,-0.00094267,0.00022956,-0.00000124,-0.00000769,-0.00010575,-
 0.00002093,-0.00000842,-0.00011712,0.00001120,0.00000081,0.00000305,0.
 00000013,-0.08250431,-0.09358661,-0.00389890,-0.00531007,-0.01590331,-
 0.00308529,-0.00522293,-0.01552595,0.00174890,0.08460763,-0.00006669,-
 0.00002988,-0.00000108,0.00017285,-0.00008984,-0.00000075,-0.00013203,
 -0.00015350,-0.00000712,0.00013662,0.00013429,-0.00000210,-0.00019053,
 0.00006150,0.00000078,0.00016161,0.00016471,0.00000981,0.00000460,0.00
 000102,0.00000031,0.00000446,0.00000647,0.00000025,0.00000167,-0.00000
 598,0.00000028,-0.00001400,0.00000216,-0.00000098,-0.00163997,-0.00051
 557,-0.00006134,0.00355242,0.00012971,-0.00002814,-0.00780009,-0.02173
 586,-0.00080286,-0.00005222,0.00077608,0.00005188,-0.00099030,0.001511
 33,0.00005061,0.00092333,-0.00046723,-0.00000054,-0.00003062,0.0001314
 9,0.00001520,-0.00003099,0.00009912,-0.00001138,0.00000186,-0.00000324
 ,-0.00000011,-0.08603910,-0.30273688,-0.01048425,-0.00069050,-0.002556
 67,-0.00001158,-0.00022514,-0.00075849,-0.00027172,0.09294275,0.326035
 25,-0.00000168,-0.00000076,-0.00000044,0.00000465,-0.00000226,-0.00000
 763,-0.00000449,-0.00000404,-0.00001354,0.00000422,0.00000023,0.000068
 80,-0.00000558,0.00000055,0.00004212,0.00000452,0.00000533,-0.00002378
 ,0.00000005,-0.00000016,0.00000482,0.00000014,0.00000019,-0.00000055,0
 .00000012,-0.00000011,-0.00000506,-0.00000058,-0.00000052,0.00001595,-
 0.00005288,-0.00002057,0.00056366,0.00005847,-0.00005269,0.00201810,-0
 .00013201,-0.00036512,-0.00262638,0.00000972,0.00004230,-0.00058110,-0
 .00002007,0.00005923,-0.00015562,0.00002524,-0.00001000,-0.00013626,-0
 .00002309,-0.00043504,0.00004569,0.00001906,0.00043682,0.00007839,0.00
 000011,-0.00000008,-0.00000058,-0.00361912,-0.01057034,-0.04711417,0.0
 0611602,0.02377909,0.00294074,-0.00631949,-0.02441687,0.00105180,0.003
 93668,0.01155481,0.04383503\\-0.00000128,-0.00000622,0.00000017,0.0000
 0459,-0.00000436,0.00000001,-0.00000212,-0.00000418,-0.00000072,0.0000
 0762,-0.00000217,0.00000047,-0.00000719,-0.00000116,0.00000023,0.00000
 236,-0.00000155,-0.00000040,0.00000063,-0.00000627,-0.00000017,0.00000
 287,-0.00000426,0.00000040,0.00000281,-0.00000086,0.00000051,-0.000001
 86,-0.00000190,-0.00000007,-0.00000968,-0.00002864,0.00000329,0.000001
 73,0.00000461,-0.00000863,-0.00000743,0.00000239,0.00000609,-0.0000105
 8,0.00003280,-0.00000074,0.00002036,-0.00001302,0.00000268,-0.00000715
 ,0.00001406,-0.00000306,-0.00000144,0.00000460,0.00000208,-0.00000175,
 0.00000192,0.00000218,-0.00000275,-0.00000544,-0.00000057,0.00000441,0
 .00000737,-0.00001865,0.00000201,0.00000447,0.00000437,0.00000021,0.00
 000317,0.00000380,0.00000362,0.00000465,0.00000672\\\@


 WHEN ALL ELSE FAILS, LOOK AT THE SCHRODINGER EQUATION.
     -- RUSSELL T. PACK, APRIL 1978
 Job cpu time:  0 days  4 hours 47 minutes 46.5 seconds.
 File lengths (MBytes):  RWF=    832 Int=      0 D2E=      0 Chk=     16 Scr=      1
 Normal termination of Gaussian 09 at Fri Jan 28 03:56:00 2022.
