 Entering Gaussian System, Link 0=g09
 Initial command:
 /LUSTRE/yoltla/nc/app/gaussian/09/g09/l1.exe /tmp/SCRATCH/edgl/869530/Gau-74148.inp -scrdir=/tmp/SCRATCH/edgl/869530/
 Entering Link 1 = /LUSTRE/yoltla/nc/app/gaussian/09/g09/l1.exe PID=     74149.
  
 Copyright (c) 1988,1990,1992,1993,1995,1998,2003,2009,2010,
            Gaussian, Inc.  All Rights Reserved.
  
 This is part of the Gaussian(R) 09 program.  It is based on
 the Gaussian(R) 03 system (copyright 2003, Gaussian, Inc.),
 the Gaussian(R) 98 system (copyright 1998, Gaussian, Inc.),
 the Gaussian(R) 94 system (copyright 1995, Gaussian, Inc.),
 the Gaussian 92(TM) system (copyright 1992, Gaussian, Inc.),
 the Gaussian 90(TM) system (copyright 1990, Gaussian, Inc.),
 the Gaussian 88(TM) system (copyright 1988, Gaussian, Inc.),
 the Gaussian 86(TM) system (copyright 1986, Carnegie Mellon
 University), and the Gaussian 82(TM) system (copyright 1983,
 Carnegie Mellon University). Gaussian is a federally registered
 trademark of Gaussian, Inc.
  
 This software contains proprietary and confidential information,
 including trade secrets, belonging to Gaussian, Inc.
  
 This software is provided under written license and may be
 used, copied, transmitted, or stored only in accord with that
 written license.
  
 The following legend is applicable only to US Government
 contracts under FAR:
  
                    RESTRICTED RIGHTS LEGEND
  
 Use, reproduction and disclosure by the US Government is
 subject to restrictions as set forth in subparagraphs (a)
 and (c) of the Commercial Computer Software - Restricted
 Rights clause in FAR 52.227-19.
  
 Gaussian, Inc.
 340 Quinnipiac St., Bldg. 40, Wallingford CT 06492
  
  
 ---------------------------------------------------------------
 Warning -- This program may not be used in any manner that
 competes with the business of Gaussian, Inc. or will provide
 assistance to any competitor of Gaussian, Inc.  The licensee
 of this program is prohibited from giving any competitor of
 Gaussian, Inc. access to this program.  By using this program,
 the user acknowledges that Gaussian, Inc. is engaged in the
 business of creating and licensing software in the field of
 computational chemistry and represents and warrants to the
 licensee that it is not a competitor of Gaussian, Inc. and that
 it will not use this program in any manner prohibited above.
 ---------------------------------------------------------------
  

 Cite this work as:
 Gaussian 09, Revision B.01,
 M. J. Frisch, G. W. Trucks, H. B. Schlegel, G. E. Scuseria, 
 M. A. Robb, J. R. Cheeseman, G. Scalmani, V. Barone, B. Mennucci, 
 G. A. Petersson, H. Nakatsuji, M. Caricato, X. Li, H. P. Hratchian, 
 A. F. Izmaylov, J. Bloino, G. Zheng, J. L. Sonnenberg, M. Hada, 
 M. Ehara, K. Toyota, R. Fukuda, J. Hasegawa, M. Ishida, T. Nakajima, 
 Y. Honda, O. Kitao, H. Nakai, T. Vreven, J. A. Montgomery, Jr., 
 J. E. Peralta, F. Ogliaro, M. Bearpark, J. J. Heyd, E. Brothers, 
 K. N. Kudin, V. N. Staroverov, T. Keith, R. Kobayashi, J. Normand, 
 K. Raghavachari, A. Rendell, J. C. Burant, S. S. Iyengar, J. Tomasi, 
 M. Cossi, N. Rega, J. M. Millam, M. Klene, J. E. Knox, J. B. Cross, 
 V. Bakken, C. Adamo, J. Jaramillo, R. Gomperts, R. E. Stratmann, 
 O. Yazyev, A. J. Austin, R. Cammi, C. Pomelli, J. W. Ochterski, 
 R. L. Martin, K. Morokuma, V. G. Zakrzewski, G. A. Voth, 
 P. Salvador, J. J. Dannenberg, S. Dapprich, A. D. Daniels, 
 O. Farkas, J. B. Foresman, J. V. Ortiz, J. Cioslowski, 
 and D. J. Fox, Gaussian, Inc., Wallingford CT, 2010.
 
 ******************************************
 Gaussian 09:  EM64L-G09RevB.01 12-Aug-2010
                13-Dec-2021 
 ******************************************
 %nprocshared=20
 Will use up to   20 processors via shared memory.
 %mem=10GB
 %chk=CH3OOH.chk
 --------------------------------------------------------------
 #p opt freq 6-311+g(d,p) scrf=(smd,solvent=water) nosymm m052x
 --------------------------------------------------------------
 1/14=-1,18=20,19=15,26=3,38=1/1,3;
 2/9=110,12=2,15=1,17=6,18=5,40=1/2;
 3/5=4,6=6,7=111,11=2,16=1,25=1,30=1,70=32201,71=1,72=1,74=-38/1,2,3;
 4//1;
 5/5=2,38=5,53=1/2;
 6/7=2,8=2,9=2,10=2,28=1/1;
 7/30=1/1,2,3,16;
 1/14=-1,18=20,19=15/3(2);
 2/9=110,15=1/2;
 99//99;
 2/9=110,15=1/2;
 3/5=4,6=6,7=111,11=2,16=1,25=1,30=1,70=32205,71=1,72=1,74=-38/1,2,3;
 4/5=5,16=3/1;
 5/5=2,38=5,53=1/2;
 7/30=1/1,2,3,16;
 1/14=-1,18=20,19=15/3(-5);
 2/9=110,15=1/2;
 6/7=2,8=2,9=2,10=2,19=2,28=1/1;
 99/9=1/99;
 Leave Link    1 at Mon Dec 13 17:13:35 2021, MaxMem= 1342177280 cpu:       1.3
 (Enter /LUSTRE/yoltla/nc/app/gaussian/09/g09/l101.exe)
 --------
 CH3OOH_1
 --------
 Symbolic Z-matrix:
 Charge =  0 Multiplicity = 1
 C                     1.39144   0.99202   0.00008 
 H                     1.73555  -0.0565   -0.00017 
 H                     1.78655   1.46012   0.90643 
 H                     1.78661   1.4599   -0.90636 
 O                     0.02405   0.91858   0.00003 
 O                    -0.34858  -0.34773  -0.00078 
 H                     0.42937  -0.91022  -0.00114 
 
 NAtoms=      7 NQM=      7 NQMF=      0 NMic=      0 NMicF=      0 NTot=      7.
                    Isotopes and Nuclear Properties:
 (Nuclear quadrupole moments (NQMom) in fm**2, nuclear magnetic moments (NMagM)
  in nuclear magnetons)

  Atom         1           2           3           4           5           6           7
 IAtWgt=          12           1           1           1          16          16           1
 AtmWgt=  12.0000000   1.0078250   1.0078250   1.0078250  15.9949146  15.9949146   1.0078250
 NucSpn=           0           1           1           1           0           0           1
 AtZEff=   0.0000000   0.0000000   0.0000000   0.0000000   0.0000000   0.0000000   0.0000000
 NQMom=    0.0000000   0.0000000   0.0000000   0.0000000   0.0000000   0.0000000   0.0000000
 NMagM=    0.0000000   2.7928460   2.7928460   2.7928460   0.0000000   0.0000000   2.7928460
 Leave Link  101 at Mon Dec 13 17:13:36 2021, MaxMem= 1342177280 cpu:       2.3
 (Enter /LUSTRE/yoltla/nc/app/gaussian/09/g09/l103.exe)

 GradGradGradGradGradGradGradGradGradGradGradGradGradGradGradGradGradGrad
 Berny optimization.
 Initialization pass.
                           ----------------------------
                           !    Initial Parameters    !
                           ! (Angstroms and Degrees)  !
 --------------------------                            --------------------------
 ! Name  Definition              Value          Derivative Info.                !
 --------------------------------------------------------------------------------
 ! R1    R(1,2)                  1.1035         estimate D2E/DX2                !
 ! R2    R(1,3)                  1.0939         estimate D2E/DX2                !
 ! R3    R(1,4)                  1.0939         estimate D2E/DX2                !
 ! R4    R(1,5)                  1.3694         estimate D2E/DX2                !
 ! R5    R(5,6)                  1.32           estimate D2E/DX2                !
 ! R6    R(6,7)                  0.96           estimate D2E/DX2                !
 ! A1    A(2,1,3)              107.1051         estimate D2E/DX2                !
 ! A2    A(2,1,4)              107.0707         estimate D2E/DX2                !
 ! A3    A(2,1,5)              105.0949         estimate D2E/DX2                !
 ! A4    A(3,1,4)              111.9023         estimate D2E/DX2                !
 ! A5    A(3,1,5)              112.5592         estimate D2E/DX2                !
 ! A6    A(4,1,5)              112.5587         estimate D2E/DX2                !
 ! A7    A(1,5,6)              109.4712         estimate D2E/DX2                !
 ! A8    A(5,6,7)              109.4712         estimate D2E/DX2                !
 ! D1    D(2,1,5,6)             -0.0231         estimate D2E/DX2                !
 ! D2    D(3,1,5,6)           -116.25           estimate D2E/DX2                !
 ! D3    D(4,1,5,6)            116.1625         estimate D2E/DX2                !
 ! D4    D(1,5,6,7)              0.0            estimate D2E/DX2                !
 --------------------------------------------------------------------------------
 Trust Radius=3.00D-01 FncErr=1.00D-07 GrdErr=1.00D-06
 Number of steps in this run=     28 maximum allowed number of steps=    100.
 GradGradGradGradGradGradGradGradGradGradGradGradGradGradGradGradGradGrad

 Leave Link  103 at Mon Dec 13 17:13:36 2021, MaxMem= 1342177280 cpu:       0.1
 (Enter /LUSTRE/yoltla/nc/app/gaussian/09/g09/l202.exe)
                          Input orientation:                          
 ---------------------------------------------------------------------
 Center     Atomic      Atomic             Coordinates (Angstroms)
 Number     Number       Type             X           Y           Z
 ---------------------------------------------------------------------
      1          6           0        1.391437    0.992023    0.000076
      2          1           0        1.735548   -0.056498   -0.000166
      3          1           0        1.786545    1.460122    0.906426
      4          1           0        1.786613    1.459903   -0.906364
      5          8           0        0.024045    0.918584    0.000029
      6          8           0       -0.348579   -0.347730   -0.000781
      7          1           0        0.429374   -0.910215   -0.001141
 ---------------------------------------------------------------------
                    Distance matrix (angstroms):
                    1          2          3          4          5
     1  C    0.000000
     2  H    1.103544   0.000000
     3  H    1.093937   1.767667   0.000000
     4  H    1.093942   1.767279   1.812790   0.000000
     5  O    1.369363   1.969779   2.054562   2.054561   0.000000
     6  O    2.196040   2.104377   2.941106   2.940520   1.320000
     7  H    2.131684   1.560425   2.878210   2.877323   1.873179
                    6          7
     6  O    0.000000
     7  H    0.960000   0.000000
 Symmetry turned off by external request.
 Stoichiometry    CH4O2
 Framework group  C1[X(CH4O2)]
 Deg. of freedom    15
 Full point group                 C1      NOp   1
 Rotational constants (GHZ):     46.4547121     11.9180661     10.1133473
 Leave Link  202 at Mon Dec 13 17:13:36 2021, MaxMem= 1342177280 cpu:       0.9
 (Enter /LUSTRE/yoltla/nc/app/gaussian/09/g09/l301.exe)
 Standard basis: 6-311+G(d,p) (5D, 7F)
 Ernie: Thresh=  0.10000D-02 Tol=  0.10000D-05 Strict=F.
 Integral buffers will be    131072 words long.
 Raffenetti 2 integral format.
 Two-electron integral symmetry is turned off.
    90 basis functions,   140 primitive gaussians,    93 cartesian basis functions
    13 alpha electrons       13 beta electrons
       nuclear repulsion energy        85.3725705166 Hartrees.
 IExCor= 3428 DFT=T Ex+Corr=M052X ExCW=0 ScaHFX=  0.560000
 ScaDFX=  0.440000  0.440000  1.000000  1.000000 ScalE2=  1.000000  1.000000
 IRadAn=      0 IRanWt=     -1 IRanGd=            0 ICorTp=0
 NAtoms=    7 NActive=    7 NUniq=    7 SFac= 1.00D+00 NAtFMM=   50 NAOKFM=F Big=F
 ------------------------------------------------------------------------------
 Polarizable Continuum Model (PCM)
 =================================
 Model                : PCM.
 Atomic radii         : SMD-Coulomb.
 Polarization charges : Total charges.
 Charge compensation  : None.
 Solution method      : Matrix inversion.
 Cavity type          : VdW (van der Waals Surface) (Alpha=1.000).
 Cavity algorithm     : GePol (No added spheres)
                        Default sphere list used, NSphG=    7.
                        Lebedev-Laikov grids with approx.  5.0 points / Ang**2.
                        Smoothing algorithm: Karplus/York (Gamma=1.0000).
                        Polarization charges: spherical gaussians, with
                                              point-specific exponents (IZeta= 3).
                        Self-potential: point-specific (ISelfS= 7).
                        Self-field    : sphere-specific E.n sum rule (ISelfD= 2).
 1st derivatives      : Analytical E(r).r(x)/FMM algorithm (CHGder, D1EAlg=3).
                        Cavity 1st derivative terms included.
 Solvent              : Water, Eps=  78.355300 Eps(inf)=   1.777849
 ------------------------------------------------------------------------------
 Spheres list:
 ISph  on   Nord    Re0     Alpha      Xe            Ye            Ze
    1   C      1    1.850   1.000      1.391437      0.992023      0.000076
    2   H      2    1.200   1.000      1.735548     -0.056498     -0.000166
    3   H      3    1.200   1.000      1.786545      1.460122      0.906426
    4   H      4    1.200   1.000      1.786613      1.459903     -0.906364
    5   O      5    1.520   1.000      0.024045      0.918584      0.000029
    6   O      6    1.520   1.000     -0.348579     -0.347730     -0.000781
    7   H      7    1.200   1.000      0.429374     -0.910215     -0.001141
 ------------------------------------------------------------------------------
 GePol: Number of generator spheres                  =       7
 GePol: Total number of spheres                      =       7
 GePol: Number of exposed spheres                    =       7 (100.00%)
 GePol: Number of points                             =     529
 GePol: Average weight of points                     =       0.13
 GePol: Minimum weight of points                     =   0.61D-11
 GePol: Maximum weight of points                     =    0.21991
 GePol: Number of points with low weight             =      24
 GePol: Fraction of low-weight points (<1% of avg)   =       4.54%
 GePol: Cavity surface area                          =     68.539 Ang**2
 GePol: Cavity volume                                =     46.523 Ang**3
 ------------------------------------------------------------------------------
 Atomic radii for non-electrostatic terms: SMD-CDS.
 ------------------------------------------------------------------------------
 PCM non-electrostatic energy =         0.0040183330 Hartrees.
 Nuclear repulsion after PCM non-electrostatic terms =       85.3765888495 Hartrees.
 Leave Link  301 at Mon Dec 13 17:13:36 2021, MaxMem= 1342177280 cpu:       1.1
 (Enter /LUSTRE/yoltla/nc/app/gaussian/09/g09/l302.exe)
 NPDir=0 NMtPBC=     1 NCelOv=     1 NCel=       1 NClECP=     1 NCelD=      1
         NCelK=      1 NCelE2=     1 NClLst=     1 CellRange=     0.0.
 One-electron integrals computed using PRISM.
 NBasis=    90 RedAO= T  NBF=    90
 NBsUse=    90 1.00D-06 NBFU=    90
 Precomputing XC quadrature grid using
 IXCGrd= 2 IRadAn=           0 IRanWt=          -1 IRanGd=           0 AccXCQ= 0.00D+00.
 NRdTot=     449 NPtTot=       56956 NUsed=       60203 NTot=       60235
 NSgBfM=    93    93    93    93    93 NAtAll=     7     7.
 Leave Link  302 at Mon Dec 13 17:13:36 2021, MaxMem= 1342177280 cpu:       9.1
 (Enter /LUSTRE/yoltla/nc/app/gaussian/09/g09/l303.exe)
 DipDrv:  MaxL=1.
 Leave Link  303 at Mon Dec 13 17:13:37 2021, MaxMem= 1342177280 cpu:       1.7
 (Enter /LUSTRE/yoltla/nc/app/gaussian/09/g09/l401.exe)
 Harris functional with IExCor= 1009 diagonalized for initial guess.
 ExpMin= 4.38D-02 ExpMax= 8.59D+03 ExpMxC= 1.30D+03 IAcc=2 IRadAn=         0 AccDes= 0.00D+00
 HarFok:  IExCor= 1009 AccDes= 0.00D+00 IRadAn=         0 IDoV= 1
 ScaDFX=  1.000000  1.000000  1.000000  1.000000
 FoFCou: FMM=F IPFlag=           0 FMFlag=      100000 FMFlg1=           0
         NFxFlg=           0 DoJE=T BraDBF=F KetDBF=T FulRan=T
         Omega=  0.000000  0.000000  1.000000  0.000000  0.000000 ICntrl=     500 IOpCl=  0
         NMat0=    1 NMatS0=    1 NMatT0=    0 NMatD0=    1 NMtDS0=    0 NMtDT0=    0
         I1Cent=           4 NGrid=           0.
 Symmetry not used in FoFCou.
 Harris En= -190.712212574914    
 Leave Link  401 at Mon Dec 13 17:13:37 2021, MaxMem= 1342177280 cpu:       4.4
 (Enter /LUSTRE/yoltla/nc/app/gaussian/09/g09/l502.exe)
 Closed shell SCF:
 Requested convergence on RMS density matrix=1.00D-08 within 128 cycles.
 Requested convergence on MAX density matrix=1.00D-06.
 Requested convergence on             energy=1.00D-06.
 No special actions if energy rises.
 Using DIIS extrapolation, IDIIS=  1040.
 Two-electron integral symmetry not used.
        60127 words used for storage of precomputed grid.
 Keep R1 ints in memory in canonical form, NReq=12934194.
 IEnd=      106652 IEndB=      106652 NGot=  1342177280 MDV=  1332540977
 LenX=  1332540977 LenY=  1332531887
 Symmetry not used in FoFDir.
 MinBra= 0 MaxBra= 2 Meth= 1.
 IRaf=       0 NMat=   1 IRICut=       1 DoRegI=T DoRafI=F ISym2E= 0 JSym2E=0.

 Cycle   1  Pass 1  IDiag  1:
 E= -190.806028195966    
 DIIS: error= 2.92D-02 at cycle   1 NSaved=   1.
 NSaved= 1 IEnMin= 1 EnMin= -190.806028195966     IErMin= 1 ErrMin= 2.92D-02
 ErrMax= 2.92D-02 EMaxC= 1.00D-01 BMatC= 8.15D-02 BMatP= 8.15D-02
 IDIUse=3 WtCom= 7.08D-01 WtEn= 2.92D-01
 Coeff-Com:  0.100D+01
 Coeff-En:   0.100D+01
 Coeff:      0.100D+01
 Gap=     0.403 Goal=   None    Shift=    0.000
 GapD=    0.403 DampG=2.000 DampE=0.500 DampFc=1.0000 IDamp=-1.
 RMSDP=3.51D-03 MaxDP=7.75D-02              OVMax= 8.21D-02

 Cycle   2  Pass 1  IDiag  1:
 E= -190.835465074002     Delta-E=       -0.029436878036 Rises=F Damp=F
 DIIS: error= 2.23D-02 at cycle   2 NSaved=   2.
 NSaved= 2 IEnMin= 2 EnMin= -190.835465074002     IErMin= 2 ErrMin= 2.23D-02
 ErrMax= 2.23D-02 EMaxC= 1.00D-01 BMatC= 3.08D-02 BMatP= 8.15D-02
 IDIUse=3 WtCom= 7.77D-01 WtEn= 2.23D-01
 Coeff-Com:  0.364D+00 0.636D+00
 Coeff-En:   0.226D+00 0.774D+00
 Coeff:      0.334D+00 0.666D+00
 Gap=     0.387 Goal=   None    Shift=    0.000
 RMSDP=1.33D-03 MaxDP=4.08D-02 DE=-2.94D-02 OVMax= 4.12D-02

 Cycle   3  Pass 1  IDiag  1:
 E= -190.857322636290     Delta-E=       -0.021857562289 Rises=F Damp=F
 DIIS: error= 6.82D-03 at cycle   3 NSaved=   3.
 NSaved= 3 IEnMin= 3 EnMin= -190.857322636290     IErMin= 3 ErrMin= 6.82D-03
 ErrMax= 6.82D-03 EMaxC= 1.00D-01 BMatC= 2.66D-03 BMatP= 3.08D-02
 IDIUse=3 WtCom= 9.32D-01 WtEn= 6.82D-02
 Coeff-Com:  0.634D-01 0.253D+00 0.684D+00
 Coeff-En:   0.000D+00 0.000D+00 0.100D+01
 Coeff:      0.591D-01 0.236D+00 0.705D+00
 Gap=     0.381 Goal=   None    Shift=    0.000
 RMSDP=3.37D-04 MaxDP=9.73D-03 DE=-2.19D-02 OVMax= 9.17D-03

 Cycle   4  Pass 1  IDiag  1:
 E= -190.858829831145     Delta-E=       -0.001507194854 Rises=F Damp=F
 DIIS: error= 2.24D-03 at cycle   4 NSaved=   4.
 NSaved= 4 IEnMin= 4 EnMin= -190.858829831145     IErMin= 4 ErrMin= 2.24D-03
 ErrMax= 2.24D-03 EMaxC= 1.00D-01 BMatC= 3.26D-04 BMatP= 2.66D-03
 IDIUse=3 WtCom= 9.78D-01 WtEn= 2.24D-02
 Coeff-Com:  0.848D-02 0.757D-01 0.343D+00 0.572D+00
 Coeff-En:   0.000D+00 0.000D+00 0.000D+00 0.100D+01
 Coeff:      0.829D-02 0.740D-01 0.336D+00 0.582D+00
 Gap=     0.380 Goal=   None    Shift=    0.000
 RMSDP=1.08D-04 MaxDP=2.49D-03 DE=-1.51D-03 OVMax= 3.29D-03

 Cycle   5  Pass 1  IDiag  1:
 E= -190.859028258422     Delta-E=       -0.000198427277 Rises=F Damp=F
 DIIS: error= 3.17D-04 at cycle   5 NSaved=   5.
 NSaved= 5 IEnMin= 5 EnMin= -190.859028258422     IErMin= 5 ErrMin= 3.17D-04
 ErrMax= 3.17D-04 EMaxC= 1.00D-01 BMatC= 9.43D-06 BMatP= 3.26D-04
 IDIUse=3 WtCom= 9.97D-01 WtEn= 3.17D-03
 Coeff-Com: -0.245D-02 0.227D-02 0.440D-01 0.189D+00 0.768D+00
 Coeff-En:   0.000D+00 0.000D+00 0.000D+00 0.000D+00 0.100D+01
 Coeff:     -0.244D-02 0.226D-02 0.439D-01 0.188D+00 0.768D+00
 Gap=     0.380 Goal=   None    Shift=    0.000
 RMSDP=2.57D-05 MaxDP=4.83D-04 DE=-1.98D-04 OVMax= 7.88D-04

 Cycle   6  Pass 1  IDiag  1:
 E= -190.859035533078     Delta-E=       -0.000007274655 Rises=F Damp=F
 DIIS: error= 4.42D-05 at cycle   6 NSaved=   6.
 NSaved= 6 IEnMin= 6 EnMin= -190.859035533078     IErMin= 6 ErrMin= 4.42D-05
 ErrMax= 4.42D-05 EMaxC= 1.00D-01 BMatC= 2.27D-07 BMatP= 9.43D-06
 IDIUse=1 WtCom= 1.00D+00 WtEn= 0.00D+00
 Coeff-Com: -0.614D-03-0.278D-02-0.946D-02-0.252D-02 0.977D-01 0.918D+00
 Coeff:     -0.614D-03-0.278D-02-0.946D-02-0.252D-02 0.977D-01 0.918D+00
 Gap=     0.380 Goal=   None    Shift=    0.000
 RMSDP=8.31D-06 MaxDP=1.65D-04 DE=-7.27D-06 OVMax= 2.56D-04

 Cycle   7  Pass 1  IDiag  1:
 E= -190.859035785924     Delta-E=       -0.000000252846 Rises=F Damp=F
 DIIS: error= 2.42D-05 at cycle   7 NSaved=   7.
 NSaved= 7 IEnMin= 7 EnMin= -190.859035785924     IErMin= 7 ErrMin= 2.42D-05
 ErrMax= 2.42D-05 EMaxC= 1.00D-01 BMatC= 8.00D-08 BMatP= 2.27D-07
 IDIUse=1 WtCom= 1.00D+00 WtEn= 0.00D+00
 Coeff-Com: -0.383D-05-0.181D-02-0.108D-01-0.266D-01-0.512D-01 0.418D+00
 Coeff-Com:  0.673D+00
 Coeff:     -0.383D-05-0.181D-02-0.108D-01-0.266D-01-0.512D-01 0.418D+00
 Coeff:      0.673D+00
 Gap=     0.380 Goal=   None    Shift=    0.000
 RMSDP=3.36D-06 MaxDP=6.55D-05 DE=-2.53D-07 OVMax= 1.19D-04

 Cycle   8  Pass 1  IDiag  1:
 E= -190.859035853945     Delta-E=       -0.000000068021 Rises=F Damp=F
 DIIS: error= 3.05D-06 at cycle   8 NSaved=   8.
 NSaved= 8 IEnMin= 8 EnMin= -190.859035853945     IErMin= 8 ErrMin= 3.05D-06
 ErrMax= 3.05D-06 EMaxC= 1.00D-01 BMatC= 8.84D-10 BMatP= 8.00D-08
 IDIUse=1 WtCom= 1.00D+00 WtEn= 0.00D+00
 Coeff-Com:  0.276D-04 0.902D-04 0.247D-03-0.801D-03-0.690D-02-0.459D-01
 Coeff-Com:  0.178D-01 0.104D+01
 Coeff:      0.276D-04 0.902D-04 0.247D-03-0.801D-03-0.690D-02-0.459D-01
 Coeff:      0.178D-01 0.104D+01
 Gap=     0.380 Goal=   None    Shift=    0.000
 RMSDP=7.67D-07 MaxDP=9.41D-06 DE=-6.80D-08 OVMax= 2.60D-05

 Cycle   9  Pass 1  IDiag  1:
 E= -190.859035855596     Delta-E=       -0.000000001651 Rises=F Damp=F
 DIIS: error= 4.54D-07 at cycle   9 NSaved=   9.
 NSaved= 9 IEnMin= 9 EnMin= -190.859035855596     IErMin= 9 ErrMin= 4.54D-07
 ErrMax= 4.54D-07 EMaxC= 1.00D-01 BMatC= 3.21D-11 BMatP= 8.84D-10
 IDIUse=1 WtCom= 1.00D+00 WtEn= 0.00D+00
 Coeff-Com:  0.161D-05 0.697D-04 0.366D-03 0.882D-03 0.155D-02-0.157D-01
 Coeff-Com: -0.277D-01 0.825D-01 0.958D+00
 Coeff:      0.161D-05 0.697D-04 0.366D-03 0.882D-03 0.155D-02-0.157D-01
 Coeff:     -0.277D-01 0.825D-01 0.958D+00
 Gap=     0.380 Goal=   None    Shift=    0.000
 RMSDP=1.30D-07 MaxDP=1.47D-06 DE=-1.65D-09 OVMax= 3.74D-06

 Cycle  10  Pass 1  IDiag  1:
 E= -190.859035855640     Delta-E=       -0.000000000044 Rises=F Damp=F
 DIIS: error= 8.23D-08 at cycle  10 NSaved=  10.
 NSaved=10 IEnMin=10 EnMin= -190.859035855640     IErMin=10 ErrMin= 8.23D-08
 ErrMax= 8.23D-08 EMaxC= 1.00D-01 BMatC= 9.96D-13 BMatP= 3.21D-11
 IDIUse=1 WtCom= 1.00D+00 WtEn= 0.00D+00
 Coeff-Com: -0.912D-06-0.596D-05-0.350D-04-0.355D-04 0.118D-03 0.288D-02
 Coeff-Com:  0.300D-04-0.428D-01-0.657D-01 0.111D+01
 Coeff:     -0.912D-06-0.596D-05-0.350D-04-0.355D-04 0.118D-03 0.288D-02
 Coeff:      0.300D-04-0.428D-01-0.657D-01 0.111D+01
 Gap=     0.380 Goal=   None    Shift=    0.000
 RMSDP=3.01D-08 MaxDP=3.93D-07 DE=-4.37D-11 OVMax= 8.42D-07

 Cycle  11  Pass 1  IDiag  1:
 E= -190.859035855642     Delta-E=       -0.000000000002 Rises=F Damp=F
 DIIS: error= 1.53D-08 at cycle  11 NSaved=  11.
 NSaved=11 IEnMin=11 EnMin= -190.859035855642     IErMin=11 ErrMin= 1.53D-08
 ErrMax= 1.53D-08 EMaxC= 1.00D-01 BMatC= 1.64D-14 BMatP= 9.96D-13
 IDIUse=1 WtCom= 1.00D+00 WtEn= 0.00D+00
 Coeff-Com: -0.247D-07-0.166D-05-0.834D-05-0.225D-04-0.466D-04 0.424D-03
 Coeff-Com:  0.697D-03-0.156D-02-0.145D-01-0.167D-01 0.103D+01
 Coeff:     -0.247D-07-0.166D-05-0.834D-05-0.225D-04-0.466D-04 0.424D-03
 Coeff:      0.697D-03-0.156D-02-0.145D-01-0.167D-01 0.103D+01
 Gap=     0.380 Goal=   None    Shift=    0.000
 RMSDP=3.21D-09 MaxDP=2.68D-08 DE=-1.93D-12 OVMax= 1.23D-07

 Error on total polarization charges =  0.03413
 SCF Done:  E(RM052X) =  -190.859035856     A.U. after   11 cycles
             Convg  =    0.3207D-08             -V/T =  2.0012
 KE= 1.906333848382D+02 PE=-6.203634617010D+02 EE= 1.534944521576D+02
 SMD-CDS (non-electrostatic) energy       (kcal/mol) =       2.52
 (included in total energy above)
 Leave Link  502 at Mon Dec 13 17:13:39 2021, MaxMem= 1342177280 cpu:      50.1
 (Enter /LUSTRE/yoltla/nc/app/gaussian/09/g09/l601.exe)
 Copying SCF densities to generalized density rwf, IOpCl= 0 IROHF=0.

 **********************************************************************

            Population analysis using the SCF density.

 **********************************************************************

 Alpha  occ. eigenvalues --  -19.72836 -19.72055 -10.60736  -1.33770  -1.03038
 Alpha  occ. eigenvalues --   -0.81151  -0.64078  -0.59607  -0.58833  -0.46688
 Alpha  occ. eigenvalues --   -0.45737  -0.44442  -0.31926
 Alpha virt. eigenvalues --    0.06079   0.08422   0.09232   0.09880   0.12672
 Alpha virt. eigenvalues --    0.16323   0.19750   0.19830   0.23451   0.24693
 Alpha virt. eigenvalues --    0.25238   0.27551   0.28432   0.29057   0.31754
 Alpha virt. eigenvalues --    0.33386   0.38028   0.40739   0.46477   0.47989
 Alpha virt. eigenvalues --    0.57468   0.61934   0.68031   0.70197   0.76061
 Alpha virt. eigenvalues --    0.88469   0.97970   1.02216   1.06257   1.08314
 Alpha virt. eigenvalues --    1.09327   1.15246   1.20378   1.29399   1.42867
 Alpha virt. eigenvalues --    1.52463   1.54287   1.57094   1.58608   1.61428
 Alpha virt. eigenvalues --    1.73237   1.73654   1.76650   1.80179   2.05606
 Alpha virt. eigenvalues --    2.16236   2.16880   2.19376   2.50091   2.50332
 Alpha virt. eigenvalues --    2.53691   2.54194   2.57915   2.59134   2.70304
 Alpha virt. eigenvalues --    2.79966   2.88687   3.02160   3.13248   3.13296
 Alpha virt. eigenvalues --    3.29821   3.40155   3.53547   3.78702   3.89444
 Alpha virt. eigenvalues --    3.91295   3.96550   4.09387   4.92300   4.96491
 Alpha virt. eigenvalues --    5.12552   5.46100   5.61435   6.19515  24.09097
 Alpha virt. eigenvalues --   50.06850  50.08462
          Condensed to atoms (all electrons):
              1          2          3          4          5          6
     1  C    5.010251   0.417298   0.417594   0.417594   0.100807   0.005609
     2  H    0.417298   0.521908  -0.022878  -0.022942  -0.058624  -0.005378
     3  H    0.417594  -0.022878   0.508907  -0.033413  -0.045793   0.001977
     4  H    0.417594  -0.022942  -0.033413   0.509012  -0.045790   0.001963
     5  O    0.100807  -0.058624  -0.045793  -0.045790   8.258295  -0.067107
     6  O    0.005609  -0.005378   0.001977   0.001963  -0.067107   8.089947
     7  H   -0.011488   0.018885   0.000686   0.000685  -0.022486   0.308340
              7
     1  C   -0.011488
     2  H    0.018885
     3  H    0.000686
     4  H    0.000685
     5  O   -0.022486
     6  O    0.308340
     7  H    0.390598
 Mulliken atomic charges:
              1
     1  C   -0.357666
     2  H    0.151730
     3  H    0.172920
     4  H    0.172890
     5  O   -0.119303
     6  O   -0.335351
     7  H    0.314780
 Sum of Mulliken atomic charges =   0.00000
 Mulliken charges with hydrogens summed into heavy atoms:
              1
     1  C    0.139874
     5  O   -0.119303
     6  O   -0.020571
 Sum of Mulliken charges with hydrogens summed into heavy atoms =   0.00000
 Electronic spatial extent (au):  <R**2>=            190.6701
 Charge=              0.0000 electrons
 Dipole moment (field-independent basis, Debye):
    X=              4.2406    Y=             -0.9719    Z=             -0.0006  Tot=              4.3505
 Quadrupole moment (field-independent basis, Debye-Ang):
   XX=            -15.9458   YY=            -17.3685   ZZ=            -18.8444
   XY=              0.8875   XZ=             -0.0018   YZ=              0.0024
 Traceless Quadrupole moment (field-independent basis, Debye-Ang):
   XX=              1.4404   YY=              0.0177   ZZ=             -1.4581
   XY=              0.8875   XZ=             -0.0018   YZ=              0.0024
 Octapole moment (field-independent basis, Debye-Ang**2):
  XXX=            -21.9762  YYY=            -31.1370  ZZZ=              0.0151  XYY=             -4.5560
  XXY=             -6.6843  XXZ=              0.0048  XZZ=             -7.5325  YZZ=             -8.3085
  YYZ=              0.0040  XYZ=              0.0031
 Hexadecapole moment (field-independent basis, Debye-Ang**3):
 XXXX=           -113.9730 YYYY=            -96.4500 ZZZZ=            -23.6114 XXXY=            -29.8557
 XXXZ=             -0.0058 YYYX=            -30.7412 YYYZ=              0.0002 ZZZX=             -0.0052
 ZZZY=             -0.0079 XXYY=            -32.0282 XXZZ=            -22.2576 YYZZ=            -18.9903
 XXYZ=              0.0005 YYXZ=              0.0008 ZZXY=             -8.7739
 N-N= 8.537658884954D+01 E-N=-6.203634618866D+02  KE= 1.906333848382D+02
 No NMR shielding tensors so no spin-rotation constants.
 Leave Link  601 at Mon Dec 13 17:13:40 2021, MaxMem= 1342177280 cpu:       3.8
 (Enter /LUSTRE/yoltla/nc/app/gaussian/09/g09/l701.exe)
 Compute integral first derivatives.
 ... and contract with generalized density number  0.
 D1PCM: PCM CHGder 1st derivatives, ID1Alg=3 FixD1E=F DoIter=F DoCFld=F I1PDM=0.
 GePol: Maximum number of non-zero 1st derivatives   =     255
 Leave Link  701 at Mon Dec 13 17:13:40 2021, MaxMem= 1342177280 cpu:       8.2
 (Enter /LUSTRE/yoltla/nc/app/gaussian/09/g09/l702.exe)
 L702 exits ... SP integral derivatives will be done elsewhere.
 Leave Link  702 at Mon Dec 13 17:13:40 2021, MaxMem= 1342177280 cpu:       0.3
 (Enter /LUSTRE/yoltla/nc/app/gaussian/09/g09/l703.exe)
 Compute integral first derivatives, UseDBF=F ICtDFT=           0.
 Integral derivatives from FoFDir, PRISM(SPDF).
 Calling FoFJK, ICntrl=      2127 FMM=F ISym2X=0 I1Cent= 0 IOpClX= 0 NMat=1 NMatS=1 NMatT=0.
 FoFCou: FMM=F IPFlag=           0 FMFlag=      100000 FMFlg1=         800
         NFxFlg=           0 DoJE=F BraDBF=F KetDBF=F FulRan=T
         Omega=  0.000000  0.000000  1.000000  0.000000  0.000000 ICntrl=    2127 IOpCl=  0
         NMat0=    1 NMatS0=    1 NMatT0=    0 NMatD0=    1 NMtDS0=    0 NMtDT0=    0
         I1Cent=           0 NGrid=           0.
 Symmetry not used in FoFCou.
 Leave Link  703 at Mon Dec 13 17:13:41 2021, MaxMem= 1342177280 cpu:       7.5
 (Enter /LUSTRE/yoltla/nc/app/gaussian/09/g09/l716.exe)
 Dipole        = 1.66836923D+00-3.82371723D-01-2.41267447D-04
 -------------------------------------------------------------------
 Center     Atomic                   Forces (Hartrees/Bohr)
 Number     Number              X              Y              Z
 -------------------------------------------------------------------
      1        6           0.054810185   -0.008793252   -0.000038766
      2        1           0.014053034    0.013032982    0.000050277
      3        1          -0.003471552    0.002604306   -0.003085862
      4        1          -0.003473686    0.002640205    0.003085903
      5        8          -0.011312155    0.075343954    0.000058652
      6        8          -0.054531006   -0.081290272   -0.000057220
      7        1           0.003925180   -0.003537924   -0.000012985
 -------------------------------------------------------------------
 Cartesian Forces:  Max     0.081290272 RMS     0.030015941
 Leave Link  716 at Mon Dec 13 17:13:41 2021, MaxMem= 1342177280 cpu:       0.4
 (Enter /LUSTRE/yoltla/nc/app/gaussian/09/g09/l103.exe)

 GradGradGradGradGradGradGradGradGradGradGradGradGradGradGradGradGradGrad
 Berny optimization.
 Internal  Forces:  Max     0.095669805 RMS     0.031986360
 Search for a local minimum.
 Step number   1 out of a maximum of   28
 All quantities printed in internal units (Hartrees-Bohrs-Radians)
 RMS Force = .31986D-01 SwitMx=.10000D-02 MixMth= 1
 Mixed Optimization -- RFO/linear search
 Second derivative matrix not updated -- first step.
 The second derivative matrix:
                          R1        R2        R3        R4        R5
           R1           0.33293
           R2           0.00000   0.34362
           R3           0.00000   0.00000   0.34361
           R4           0.00000   0.00000   0.00000   0.51099
           R5           0.00000   0.00000   0.00000   0.00000   0.61931
           R6           0.00000   0.00000   0.00000   0.00000   0.00000
           A1           0.00000   0.00000   0.00000   0.00000   0.00000
           A2           0.00000   0.00000   0.00000   0.00000   0.00000
           A3           0.00000   0.00000   0.00000   0.00000   0.00000
           A4           0.00000   0.00000   0.00000   0.00000   0.00000
           A5           0.00000   0.00000   0.00000   0.00000   0.00000
           A6           0.00000   0.00000   0.00000   0.00000   0.00000
           A7           0.00000   0.00000   0.00000   0.00000   0.00000
           A8           0.00000   0.00000   0.00000   0.00000   0.00000
           D1           0.00000   0.00000   0.00000   0.00000   0.00000
           D2           0.00000   0.00000   0.00000   0.00000   0.00000
           D3           0.00000   0.00000   0.00000   0.00000   0.00000
           D4           0.00000   0.00000   0.00000   0.00000   0.00000
                          R6        A1        A2        A3        A4
           R6           0.55473
           A1           0.00000   0.16000
           A2           0.00000   0.00000   0.16000
           A3           0.00000   0.00000   0.00000   0.16000
           A4           0.00000   0.00000   0.00000   0.00000   0.16000
           A5           0.00000   0.00000   0.00000   0.00000   0.00000
           A6           0.00000   0.00000   0.00000   0.00000   0.00000
           A7           0.00000   0.00000   0.00000   0.00000   0.00000
           A8           0.00000   0.00000   0.00000   0.00000   0.00000
           D1           0.00000   0.00000   0.00000   0.00000   0.00000
           D2           0.00000   0.00000   0.00000   0.00000   0.00000
           D3           0.00000   0.00000   0.00000   0.00000   0.00000
           D4           0.00000   0.00000   0.00000   0.00000   0.00000
                          A5        A6        A7        A8        D1
           A5           0.16000
           A6           0.00000   0.16000
           A7           0.00000   0.00000   0.25000
           A8           0.00000   0.00000   0.00000   0.16000
           D1           0.00000   0.00000   0.00000   0.00000   0.02097
           D2           0.00000   0.00000   0.00000   0.00000   0.00000
           D3           0.00000   0.00000   0.00000   0.00000   0.00000
           D4           0.00000   0.00000   0.00000   0.00000   0.00000
                          D2        D3        D4
           D2           0.02097
           D3           0.00000   0.02097
           D4           0.00000   0.00000   0.02353
 ITU=  0
     Eigenvalues ---    0.02097   0.02353   0.09948   0.11004   0.16000
     Eigenvalues ---    0.16000   0.16000   0.16000   0.25000   0.33293
     Eigenvalues ---    0.34361   0.34362   0.51099   0.55473   0.61931
 RFO step:  Lambda=-4.21008524D-02 EMin= 2.09705321D-02
 Linear search not attempted -- first point.
 Maximum step size (   0.300) exceeded in Quadratic search.
    -- Step size scaled by   0.884
 Iteration  1 RMS(Cart)=  0.20902590 RMS(Int)=  0.01192576
 Iteration  2 RMS(Cart)=  0.01418025 RMS(Int)=  0.00125411
 Iteration  3 RMS(Cart)=  0.00015836 RMS(Int)=  0.00125131
 Iteration  4 RMS(Cart)=  0.00000012 RMS(Int)=  0.00125131
 Variable       Old X    -DE/DX   Delta X   Delta X   Delta X     New X
                                 (Linear)    (Quad)   (Total)
    R1        2.08540  -0.00800   0.00000  -0.01886  -0.01886   2.06653
    R2        2.06724  -0.00270   0.00000  -0.00618  -0.00618   2.06106
    R3        2.06725  -0.00268   0.00000  -0.00614  -0.00614   2.06111
    R4        2.58772   0.06233   0.00000   0.09959   0.09959   2.68731
    R5        2.49444   0.09567   0.00000   0.12783   0.12783   2.62227
    R6        1.81414   0.00526   0.00000   0.00779   0.00779   1.82193
    A1        1.86934  -0.00453   0.00000  -0.00851  -0.00900   1.86033
    A2        1.86874  -0.00446   0.00000  -0.00814  -0.00864   1.86009
    A3        1.83425   0.03185   0.00000   0.15056   0.15004   1.98429
    A4        1.95306  -0.00270   0.00000  -0.02945  -0.03266   1.92041
    A5        1.96453  -0.00872   0.00000  -0.04418  -0.04612   1.91841
    A6        1.96452  -0.00870   0.00000  -0.04409  -0.04603   1.91849
    A7        1.91063   0.06236   0.00000   0.18866   0.18866   2.09929
    A8        1.91063   0.00103   0.00000   0.00448   0.00448   1.91512
    D1       -0.00040  -0.00004   0.00000  -0.00033  -0.00034  -0.00074
    D2       -2.02895  -0.00921   0.00000  -0.05757  -0.05538  -2.08432
    D3        2.02742   0.00921   0.00000   0.05736   0.05517   2.08259
    D4        0.00000  -0.00002   0.00000  -0.00020  -0.00020  -0.00020
         Item               Value     Threshold  Converged?
 Maximum Force            0.095670     0.000450     NO 
 RMS     Force            0.031986     0.000300     NO 
 Maximum Displacement     0.524975     0.001800     NO 
 RMS     Displacement     0.216567     0.001200     NO 
 Predicted change in Energy=-2.276061D-02
 GradGradGradGradGradGradGradGradGradGradGradGradGradGradGradGradGradGrad

 Leave Link  103 at Mon Dec 13 17:13:42 2021, MaxMem= 1342177280 cpu:      25.3
 (Enter /LUSTRE/yoltla/nc/app/gaussian/09/g09/l202.exe)
                          Input orientation:                          
 ---------------------------------------------------------------------
 Center     Atomic      Atomic             Coordinates (Angstroms)
 Number     Number       Type             X           Y           Z
 ---------------------------------------------------------------------
      1          6           0        1.477177    1.001894    0.000090
      2          1           0        2.013353    0.048796    0.000134
      3          1           0        1.797195    1.539253    0.893615
      4          1           0        1.797329    1.538966   -0.893589
      5          8           0        0.062067    0.861424    0.000074
      6          8           0       -0.515843   -0.400153   -0.000774
      7          1           0        0.173704   -1.073991   -0.001471
 ---------------------------------------------------------------------
                    Distance matrix (angstroms):
                    1          2          3          4          5
     1  C    0.000000
     2  H    1.093563   0.000000
     3  H    1.090667   1.751140   0.000000
     4  H    1.090690   1.751003   1.787204   0.000000
     5  O    1.422064   2.113736   2.066043   2.066115   0.000000
     6  O    2.436773   2.568732   3.148233   3.147708   1.387645
     7  H    2.451191   2.155217   3.204051   3.203057   1.938633
                    6          7
     6  O    0.000000
     7  H    0.964123   0.000000
 Symmetry turned off by external request.
 Stoichiometry    CH4O2
 Framework group  C1[X(CH4O2)]
 Deg. of freedom    15
 Full point group                 C1      NOp   1
 Rotational constants (GHZ):     52.0537290      9.7326058      8.6513672
 Leave Link  202 at Mon Dec 13 17:13:42 2021, MaxMem= 1342177280 cpu:       0.6
 (Enter /LUSTRE/yoltla/nc/app/gaussian/09/g09/l301.exe)
 Standard basis: 6-311+G(d,p) (5D, 7F)
 Ernie: Thresh=  0.10000D-02 Tol=  0.10000D-05 Strict=F.
 Integral buffers will be    131072 words long.
 Raffenetti 2 integral format.
 Two-electron integral symmetry is turned off.
    90 basis functions,   140 primitive gaussians,    93 cartesian basis functions
    13 alpha electrons       13 beta electrons
       nuclear repulsion energy        81.2023743825 Hartrees.
 IExCor= 3428 DFT=T Ex+Corr=M052X ExCW=0 ScaHFX=  0.560000
 ScaDFX=  0.440000  0.440000  1.000000  1.000000 ScalE2=  1.000000  1.000000
 IRadAn=      0 IRanWt=     -1 IRanGd=            0 ICorTp=0
 NAtoms=    7 NActive=    7 NUniq=    7 SFac= 1.00D+00 NAtFMM=   50 NAOKFM=F Big=F
 ------------------------------------------------------------------------------
 Polarizable Continuum Model (PCM)
 =================================
 Model                : PCM.
 Atomic radii         : SMD-Coulomb.
 Polarization charges : Total charges.
 Charge compensation  : None.
 Solution method      : Matrix inversion.
 Cavity type          : VdW (van der Waals Surface) (Alpha=1.000).
 Cavity algorithm     : GePol (No added spheres)
                        Default sphere list used, NSphG=    7.
                        Lebedev-Laikov grids with approx.  5.0 points / Ang**2.
                        Smoothing algorithm: Karplus/York (Gamma=1.0000).
                        Polarization charges: spherical gaussians, with
                                              point-specific exponents (IZeta= 3).
                        Self-potential: point-specific (ISelfS= 7).
                        Self-field    : sphere-specific E.n sum rule (ISelfD= 2).
 1st derivatives      : Analytical E(r).r(x)/FMM algorithm (CHGder, D1EAlg=3).
                        Cavity 1st derivative terms included.
 Solvent              : Water, Eps=  78.355300 Eps(inf)=   1.777849
 ------------------------------------------------------------------------------
 Spheres list:
 ISph  on   Nord    Re0     Alpha      Xe            Ye            Ze
    1   C      1    1.850   1.000      1.477177      1.001894      0.000090
    2   H      2    1.200   1.000      2.013353      0.048796      0.000134
    3   H      3    1.200   1.000      1.797195      1.539253      0.893615
    4   H      4    1.200   1.000      1.797329      1.538966     -0.893589
    5   O      5    1.520   1.000      0.062067      0.861424      0.000074
    6   O      6    1.520   1.000     -0.515843     -0.400153     -0.000774
    7   H      7    1.200   1.000      0.173704     -1.073991     -0.001471
 ------------------------------------------------------------------------------
 GePol: Number of generator spheres                  =       7
 GePol: Total number of spheres                      =       7
 GePol: Number of exposed spheres                    =       7 (100.00%)
 GePol: Number of points                             =     542
 GePol: Average weight of points                     =       0.13
 GePol: Minimum weight of points                     =   0.35D-05
 GePol: Maximum weight of points                     =    0.21991
 GePol: Number of points with low weight             =      23
 GePol: Fraction of low-weight points (<1% of avg)   =       4.24%
 GePol: Cavity surface area                          =     72.050 Ang**2
 GePol: Cavity volume                                =     48.234 Ang**3
 ------------------------------------------------------------------------------
 Atomic radii for non-electrostatic terms: SMD-CDS.
 ------------------------------------------------------------------------------
 PCM non-electrostatic energy =         0.0037296617 Hartrees.
 Nuclear repulsion after PCM non-electrostatic terms =       81.2061040441 Hartrees.
 Leave Link  301 at Mon Dec 13 17:13:42 2021, MaxMem= 1342177280 cpu:       1.0
 (Enter /LUSTRE/yoltla/nc/app/gaussian/09/g09/l302.exe)
 NPDir=0 NMtPBC=     1 NCelOv=     1 NCel=       1 NClECP=     1 NCelD=      1
         NCelK=      1 NCelE2=     1 NClLst=     1 CellRange=     0.0.
 One-electron integrals computed using PRISM.
 NBasis=    90 RedAO= T  NBF=    90
 NBsUse=    90 1.00D-06 NBFU=    90
 Precomputing XC quadrature grid using
 IXCGrd= 2 IRadAn=           0 IRanWt=          -1 IRanGd=           0 AccXCQ= 0.00D+00.
 NRdTot=     449 NPtTot=       56956 NUsed=       60203 NTot=       60235
 NSgBfM=    93    93    93    93    93 NAtAll=     7     7.
 Leave Link  302 at Mon Dec 13 17:13:42 2021, MaxMem= 1342177280 cpu:       5.1
 (Enter /LUSTRE/yoltla/nc/app/gaussian/09/g09/l303.exe)
 DipDrv:  MaxL=1.
 Leave Link  303 at Mon Dec 13 17:13:43 2021, MaxMem= 1342177280 cpu:       3.2
 (Enter /LUSTRE/yoltla/nc/app/gaussian/09/g09/l401.exe)
 Initial guess read from the read-write file.
 B after Tr=     0.000000    0.000000    0.000000
         Rot=    1.000000    0.000000    0.000000    0.000000 Ang=   0.00 deg.
 Guess basis will be translated and rotated to current coordinates.
 Generating alternative initial guess.
 Harris functional with IExCor= 1009 diagonalized for initial guess.
 ExpMin= 4.38D-02 ExpMax= 8.59D+03 ExpMxC= 1.30D+03 IAcc=2 IRadAn=         0 AccDes= 0.00D+00
 HarFok:  IExCor= 1009 AccDes= 0.00D+00 IRadAn=         0 IDoV= 1
 ScaDFX=  1.000000  1.000000  1.000000  1.000000
 FoFCou: FMM=F IPFlag=           0 FMFlag=      100000 FMFlg1=           0
         NFxFlg=           0 DoJE=T BraDBF=F KetDBF=T FulRan=T
         Omega=  0.000000  0.000000  1.000000  0.000000  0.000000 ICntrl=     500 IOpCl=  0
         NMat0=    1 NMatS0=    1 NMatT0=    0 NMatD0=    1 NMtDS0=    0 NMtDT0=    0
         I1Cent=           4 NGrid=           0.
 Symmetry not used in FoFCou.
 Harris En= -190.729097573926    
 Leave Link  401 at Mon Dec 13 17:13:43 2021, MaxMem= 1342177280 cpu:      11.0
 (Enter /LUSTRE/yoltla/nc/app/gaussian/09/g09/l502.exe)
 Closed shell SCF:
 Requested convergence on RMS density matrix=1.00D-08 within 128 cycles.
 Requested convergence on MAX density matrix=1.00D-06.
 Requested convergence on             energy=1.00D-06.
 No special actions if energy rises.
 Using DIIS extrapolation, IDIIS=  1040.
 Two-electron integral symmetry not used.
        60127 words used for storage of precomputed grid.
 Keep R1 ints in memory in canonical form, NReq=12949426.
 IEnd=      106652 IEndB=      106652 NGot=  1342177280 MDV=  1332540977
 LenX=  1332540977 LenY=  1332531887
 Symmetry not used in FoFDir.
 MinBra= 0 MaxBra= 2 Meth= 1.
 IRaf=       0 NMat=   1 IRICut=       1 DoRegI=T DoRafI=F ISym2E= 0 JSym2E=0.

 Cycle   1  Pass 1  IDiag  1:
 E= -190.849386726168    
 DIIS: error= 1.11D-02 at cycle   1 NSaved=   1.
 NSaved= 1 IEnMin= 1 EnMin= -190.849386726168     IErMin= 1 ErrMin= 1.11D-02
 ErrMax= 1.11D-02 EMaxC= 1.00D-01 BMatC= 1.47D-02 BMatP= 1.47D-02
 IDIUse=3 WtCom= 8.89D-01 WtEn= 1.11D-01
 Coeff-Com:  0.100D+01
 Coeff-En:   0.100D+01
 Coeff:      0.100D+01
 Recover alternate guess density for next cycle.
 RMSDP=3.07D-03 MaxDP=4.54D-02              OVMax= 0.00D+00

 Cycle   2  Pass 1  IDiag  1:
 E= -190.819018312314     Delta-E=        0.030368413854 Rises=F Damp=F
 Switch densities from cycles 1 and 2 for lowest energy.
 DIIS: error= 2.83D-02 at cycle   2 NSaved=   2.
 NSaved= 2 IEnMin= 1 EnMin= -190.849386726168     IErMin= 1 ErrMin= 1.11D-02
 ErrMax= 2.83D-02 EMaxC= 1.00D+00 BMatC= 7.90D-02 BMatP= 1.47D-02
 IDIUse=1 WtCom= 1.00D+00 WtEn= 0.00D+00
 Coeff-Com:  0.853D+00 0.147D+00
 Coeff:      0.853D+00 0.147D+00
 Gap=     0.419 Goal=   None    Shift=    0.000
 RMSDP=1.34D-03 MaxDP=1.15D-02 DE= 3.04D-02 OVMax= 7.33D-02

 Cycle   3  Pass 1  IDiag  1:
 E= -190.869521371089     Delta-E=       -0.050503058775 Rises=F Damp=F
 DIIS: error= 3.86D-03 at cycle   3 NSaved=   3.
 NSaved= 3 IEnMin= 3 EnMin= -190.869521371089     IErMin= 3 ErrMin= 3.86D-03
 ErrMax= 3.86D-03 EMaxC= 1.00D+00 BMatC= 1.49D-03 BMatP= 1.47D-02
 IDIUse=1 WtCom= 1.00D+00 WtEn= 0.00D+00
 Coeff-Com: -0.323D-01 0.886D-01 0.944D+00
 Coeff:     -0.323D-01 0.886D-01 0.944D+00
 Gap=     0.390 Goal=   None    Shift=    0.000
 RMSDP=4.17D-04 MaxDP=8.54D-03 DE=-5.05D-02 OVMax= 1.33D-02

 Cycle   4  Pass 1  IDiag  1:
 E= -190.871109031132     Delta-E=       -0.001587660042 Rises=F Damp=F
 DIIS: error= 1.60D-03 at cycle   4 NSaved=   4.
 NSaved= 4 IEnMin= 4 EnMin= -190.871109031132     IErMin= 4 ErrMin= 1.60D-03
 ErrMax= 1.60D-03 EMaxC= 1.00D+00 BMatC= 2.36D-04 BMatP= 1.49D-03
 IDIUse=1 WtCom= 1.00D+00 WtEn= 0.00D+00
 Coeff-Com: -0.556D-01 0.107D-01 0.304D+00 0.741D+00
 Coeff:     -0.556D-01 0.107D-01 0.304D+00 0.741D+00
 Gap=     0.386 Goal=   None    Shift=    0.000
 RMSDP=1.18D-04 MaxDP=2.61D-03 DE=-1.59D-03 OVMax= 3.58D-03

 Cycle   5  Pass 1  IDiag  1:
 E= -190.871283244395     Delta-E=       -0.000174213263 Rises=F Damp=F
 DIIS: error= 4.20D-04 at cycle   5 NSaved=   5.
 NSaved= 5 IEnMin= 5 EnMin= -190.871283244395     IErMin= 5 ErrMin= 4.20D-04
 ErrMax= 4.20D-04 EMaxC= 1.00D+00 BMatC= 1.76D-05 BMatP= 2.36D-04
 IDIUse=1 WtCom= 1.00D+00 WtEn= 0.00D+00
 Coeff-Com: -0.167D-01-0.483D-03 0.489D-01 0.248D+00 0.721D+00
 Coeff:     -0.167D-01-0.483D-03 0.489D-01 0.248D+00 0.721D+00
 Gap=     0.387 Goal=   None    Shift=    0.000
 RMSDP=3.63D-05 MaxDP=8.57D-04 DE=-1.74D-04 OVMax= 1.36D-03

 Cycle   6  Pass 1  IDiag  1:
 E= -190.871296483591     Delta-E=       -0.000013239196 Rises=F Damp=F
 DIIS: error= 1.97D-04 at cycle   6 NSaved=   6.
 NSaved= 6 IEnMin= 6 EnMin= -190.871296483591     IErMin= 6 ErrMin= 1.97D-04
 ErrMax= 1.97D-04 EMaxC= 1.00D+00 BMatC= 2.53D-06 BMatP= 1.76D-05
 IDIUse=1 WtCom= 1.00D+00 WtEn= 0.00D+00
 Coeff-Com:  0.237D-02-0.131D-02-0.293D-01-0.296D-01 0.268D+00 0.790D+00
 Coeff:      0.237D-02-0.131D-02-0.293D-01-0.296D-01 0.268D+00 0.790D+00
 Gap=     0.387 Goal=   None    Shift=    0.000
 RMSDP=1.53D-05 MaxDP=2.81D-04 DE=-1.32D-05 OVMax= 6.31D-04

 Cycle   7  Pass 1  IDiag  1:
 E= -190.871298835471     Delta-E=       -0.000002351880 Rises=F Damp=F
 DIIS: error= 4.19D-05 at cycle   7 NSaved=   7.
 NSaved= 7 IEnMin= 7 EnMin= -190.871298835471     IErMin= 7 ErrMin= 4.19D-05
 ErrMax= 4.19D-05 EMaxC= 1.00D+00 BMatC= 2.29D-07 BMatP= 2.53D-06
 IDIUse=1 WtCom= 1.00D+00 WtEn= 0.00D+00
 Coeff-Com:  0.140D-02-0.374D-03-0.151D-01-0.240D-01 0.883D-01 0.351D+00
 Coeff-Com:  0.599D+00
 Coeff:      0.140D-02-0.374D-03-0.151D-01-0.240D-01 0.883D-01 0.351D+00
 Coeff:      0.599D+00
 Gap=     0.387 Goal=   None    Shift=    0.000
 RMSDP=3.65D-06 MaxDP=8.96D-05 DE=-2.35D-06 OVMax= 1.11D-04

 Cycle   8  Pass 1  IDiag  1:
 E= -190.871298985438     Delta-E=       -0.000000149967 Rises=F Damp=F
 DIIS: error= 1.77D-05 at cycle   8 NSaved=   8.
 NSaved= 8 IEnMin= 8 EnMin= -190.871298985438     IErMin= 8 ErrMin= 1.77D-05
 ErrMax= 1.77D-05 EMaxC= 1.00D+00 BMatC= 1.84D-08 BMatP= 2.29D-07
 IDIUse=1 WtCom= 1.00D+00 WtEn= 0.00D+00
 Coeff-Com:  0.271D-03 0.422D-04-0.136D-02-0.559D-02-0.120D-01 0.467D-02
 Coeff-Com:  0.222D+00 0.792D+00
 Coeff:      0.271D-03 0.422D-04-0.136D-02-0.559D-02-0.120D-01 0.467D-02
 Coeff:      0.222D+00 0.792D+00
 Gap=     0.387 Goal=   None    Shift=    0.000
 RMSDP=1.35D-06 MaxDP=1.86D-05 DE=-1.50D-07 OVMax= 5.33D-05

 Cycle   9  Pass 1  IDiag  1:
 E= -190.871299001576     Delta-E=       -0.000000016138 Rises=F Damp=F
 DIIS: error= 1.56D-06 at cycle   9 NSaved=   9.
 NSaved= 9 IEnMin= 9 EnMin= -190.871299001576     IErMin= 9 ErrMin= 1.56D-06
 ErrMax= 1.56D-06 EMaxC= 1.00D+00 BMatC= 3.28D-10 BMatP= 1.84D-08
 IDIUse=1 WtCom= 1.00D+00 WtEn= 0.00D+00
 Coeff-Com: -0.553D-04 0.156D-04 0.656D-03 0.133D-02-0.377D-02-0.160D-01
 Coeff-Com: -0.319D-01 0.225D-01 0.103D+01
 Coeff:     -0.553D-04 0.156D-04 0.656D-03 0.133D-02-0.377D-02-0.160D-01
 Coeff:     -0.319D-01 0.225D-01 0.103D+01
 Gap=     0.387 Goal=   None    Shift=    0.000
 RMSDP=3.92D-07 MaxDP=4.14D-06 DE=-1.61D-08 OVMax= 1.54D-05

 Cycle  10  Pass 1  IDiag  1:
 E= -190.871299002181     Delta-E=       -0.000000000605 Rises=F Damp=F
 DIIS: error= 4.97D-07 at cycle  10 NSaved=  10.
 NSaved=10 IEnMin=10 EnMin= -190.871299002181     IErMin=10 ErrMin= 4.97D-07
 ErrMax= 4.97D-07 EMaxC= 1.00D+00 BMatC= 1.59D-11 BMatP= 3.28D-10
 IDIUse=1 WtCom= 1.00D+00 WtEn= 0.00D+00
 Coeff-Com: -0.120D-04-0.407D-05 0.704D-04 0.317D-03 0.455D-03-0.615D-03
 Coeff-Com: -0.127D-01-0.434D-01 0.296D-01 0.103D+01
 Coeff:     -0.120D-04-0.407D-05 0.704D-04 0.317D-03 0.455D-03-0.615D-03
 Coeff:     -0.127D-01-0.434D-01 0.296D-01 0.103D+01
 Gap=     0.387 Goal=   None    Shift=    0.000
 RMSDP=1.03D-07 MaxDP=1.40D-06 DE=-6.05D-10 OVMax= 3.73D-06

 Cycle  11  Pass 1  IDiag  1:
 E= -190.871299002214     Delta-E=       -0.000000000033 Rises=F Damp=F
 DIIS: error= 5.31D-08 at cycle  11 NSaved=  11.
 NSaved=11 IEnMin=11 EnMin= -190.871299002214     IErMin=11 ErrMin= 5.31D-08
 ErrMax= 5.31D-08 EMaxC= 1.00D+00 BMatC= 3.90D-13 BMatP= 1.59D-11
 IDIUse=1 WtCom= 1.00D+00 WtEn= 0.00D+00
 Coeff-Com:  0.239D-05-0.667D-07-0.317D-04-0.686D-04 0.202D-03 0.732D-03
 Coeff-Com:  0.130D-02 0.405D-03-0.374D-01-0.614D-01 0.110D+01
 Coeff:      0.239D-05-0.667D-07-0.317D-04-0.686D-04 0.202D-03 0.732D-03
 Coeff:      0.130D-02 0.405D-03-0.374D-01-0.614D-01 0.110D+01
 Gap=     0.387 Goal=   None    Shift=    0.000
 RMSDP=2.16D-08 MaxDP=2.12D-07 DE=-3.32D-11 OVMax= 7.66D-07

 Cycle  12  Pass 1  IDiag  1:
 E= -190.871299002215     Delta-E=       -0.000000000001 Rises=F Damp=F
 DIIS: error= 1.12D-08 at cycle  12 NSaved=  12.
 NSaved=12 IEnMin=12 EnMin= -190.871299002215     IErMin=12 ErrMin= 1.12D-08
 ErrMax= 1.12D-08 EMaxC= 1.00D+00 BMatC= 1.06D-14 BMatP= 3.90D-13
 IDIUse=1 WtCom= 1.00D+00 WtEn= 0.00D+00
 Coeff-Com: -0.266D-07 0.109D-06 0.134D-05 0.322D-06-0.165D-04-0.548D-04
 Coeff-Com:  0.336D-04 0.699D-03 0.428D-02-0.220D-01-0.101D+00 0.112D+01
 Coeff:     -0.266D-07 0.109D-06 0.134D-05 0.322D-06-0.165D-04-0.548D-04
 Coeff:      0.336D-04 0.699D-03 0.428D-02-0.220D-01-0.101D+00 0.112D+01
 Gap=     0.387 Goal=   None    Shift=    0.000
 RMSDP=3.03D-09 MaxDP=3.79D-08 DE=-1.31D-12 OVMax= 8.17D-08

 Error on total polarization charges =  0.03397
 SCF Done:  E(RM052X) =  -190.871299002     A.U. after   12 cycles
             Convg  =    0.3026D-08             -V/T =  2.0028
 KE= 1.903295208147D+02 PE=-6.120448095667D+02 EE= 1.496378857057D+02
 SMD-CDS (non-electrostatic) energy       (kcal/mol) =       2.34
 (included in total energy above)
 Leave Link  502 at Mon Dec 13 17:13:46 2021, MaxMem= 1342177280 cpu:      49.2
 (Enter /LUSTRE/yoltla/nc/app/gaussian/09/g09/l701.exe)
 Compute integral first derivatives.
 ... and contract with generalized density number  0.
 D1PCM: PCM CHGder 1st derivatives, ID1Alg=3 FixD1E=F DoIter=F DoCFld=F I1PDM=0.
 GePol: Maximum number of non-zero 1st derivatives   =     252
 Leave Link  701 at Mon Dec 13 17:13:46 2021, MaxMem= 1342177280 cpu:       8.5
 (Enter /LUSTRE/yoltla/nc/app/gaussian/09/g09/l702.exe)
 L702 exits ... SP integral derivatives will be done elsewhere.
 Leave Link  702 at Mon Dec 13 17:13:46 2021, MaxMem= 1342177280 cpu:       0.3
 (Enter /LUSTRE/yoltla/nc/app/gaussian/09/g09/l703.exe)
 Compute integral first derivatives, UseDBF=F ICtDFT=           0.
 Integral derivatives from FoFDir, PRISM(SPDF).
 Calling FoFJK, ICntrl=      2127 FMM=F ISym2X=0 I1Cent= 0 IOpClX= 0 NMat=1 NMatS=1 NMatT=0.
 FoFCou: FMM=F IPFlag=           0 FMFlag=      100000 FMFlg1=         800
         NFxFlg=           0 DoJE=F BraDBF=F KetDBF=F FulRan=T
         Omega=  0.000000  0.000000  1.000000  0.000000  0.000000 ICntrl=    2127 IOpCl=  0
         NMat0=    1 NMatS0=    1 NMatT0=    0 NMatD0=    1 NMtDS0=    0 NMtDT0=    0
         I1Cent=           0 NGrid=           0.
 Symmetry not used in FoFCou.
 Leave Link  703 at Mon Dec 13 17:13:47 2021, MaxMem= 1342177280 cpu:       7.1
 (Enter /LUSTRE/yoltla/nc/app/gaussian/09/g09/l716.exe)
 Dipole        = 1.72024283D+00-5.48327226D-01-5.83453872D-04
 -------------------------------------------------------------------
 Center     Atomic                   Forces (Hartrees/Bohr)
 Number     Number              X              Y              Z
 -------------------------------------------------------------------
      1        6           0.017613987   -0.012782124   -0.000046745
      2        1          -0.006804788   -0.002578199    0.000021025
      3        1          -0.004952923    0.000903894   -0.000150081
      4        1          -0.004953750    0.000911922    0.000160391
      5        8          -0.001977881    0.036767768    0.000037767
      6        8          -0.007470216   -0.024099033   -0.000016387
      7        1           0.008545570    0.000875772   -0.000005970
 -------------------------------------------------------------------
 Cartesian Forces:  Max     0.036767768 RMS     0.011219672
 Leave Link  716 at Mon Dec 13 17:13:47 2021, MaxMem= 1342177280 cpu:       0.4
 (Enter /LUSTRE/yoltla/nc/app/gaussian/09/g09/l103.exe)

 GradGradGradGradGradGradGradGradGradGradGradGradGradGradGradGradGradGrad
 Berny optimization.
 Using GEDIIS/GDIIS optimizer.
 Internal  Forces:  Max     0.040038074 RMS     0.011571510
 Search for a local minimum.
 Step number   2 out of a maximum of   28
 All quantities printed in internal units (Hartrees-Bohrs-Radians)
 RMS Force = .11572D-01 SwitMx=.10000D-02 MixMth= 1
 Mixed Optimization -- RFO/linear search
 Update second derivatives using D2CorX and points    1    2
 DE= -1.23D-02 DEPred=-2.28D-02 R= 5.39D-01
 SS=  1.41D+00  RLast= 3.11D-01 DXNew= 5.0454D-01 9.3172D-01
 Trust test= 5.39D-01 RLast= 3.11D-01 DXMaxT set to 5.05D-01
 The second derivative matrix:
                          R1        R2        R3        R4        R5
           R1           0.33267
           R2          -0.00021   0.34352
           R3          -0.00021  -0.00010   0.34351
           R4           0.00101   0.00146   0.00147   0.51267
           R5           0.00521   0.00310   0.00310  -0.03040   0.53260
           R6           0.00098   0.00033   0.00033  -0.00799  -0.01229
           A1           0.00148   0.00030   0.00030  -0.01373  -0.01548
           A2           0.00148   0.00030   0.00030  -0.01377  -0.01557
           A3          -0.00115   0.00032   0.00033   0.01558   0.00333
           A4          -0.00010  -0.00015  -0.00015  -0.00020   0.00308
           A5          -0.00087  -0.00038  -0.00038   0.00636   0.01229
           A6          -0.00087  -0.00038  -0.00037   0.00634   0.01226
           A7          -0.00614  -0.00025  -0.00022   0.06588   0.04867
           A8          -0.00193  -0.00042  -0.00042   0.01774   0.02073
           D1           0.00000   0.00000   0.00000  -0.00002  -0.00002
           D2           0.00117   0.00024   0.00023  -0.01088  -0.01225
           D3          -0.00117  -0.00024  -0.00023   0.01088   0.01226
           D4           0.00000   0.00000   0.00000   0.00000   0.00000
                          R6        A1        A2        A3        A4
           R6           0.55409
           A1           0.00028   0.16283
           A2           0.00027   0.00282   0.16281
           A3          -0.00383  -0.00911  -0.00912   0.17672
           A4           0.00082   0.00142   0.00142  -0.00162   0.16002
           A5           0.00113   0.00082   0.00083   0.00192  -0.00065
           A6           0.00113   0.00082   0.00083   0.00191  -0.00065
           A7          -0.00766  -0.02418  -0.02417   0.05520  -0.00682
           A8          -0.00018  -0.00335  -0.00334   0.01144  -0.00183
           D1           0.00000   0.00000   0.00000  -0.00001   0.00000
           D2           0.00023   0.00224   0.00224  -0.00722   0.00112
           D3          -0.00023  -0.00224  -0.00224   0.00723  -0.00112
           D4           0.00000   0.00000   0.00000   0.00000   0.00000
                          A5        A6        A7        A8        D1
           A5           0.15860
           A6          -0.00140   0.15860
           A7           0.00121   0.00119   0.41598
           A8          -0.00120  -0.00120   0.02982   0.16393
           D1           0.00000   0.00000  -0.00004  -0.00001   0.02097
           D2           0.00064   0.00064  -0.01918  -0.00266   0.00000
           D3          -0.00064  -0.00064   0.01918   0.00266   0.00000
           D4           0.00000   0.00000  -0.00001   0.00000   0.00000
                          D2        D3        D4
           D2           0.02275
           D3          -0.00178   0.02275
           D4           0.00000   0.00000   0.02353
 ITU=  1  0
 Use linear search instead of GDIIS.
     Eigenvalues ---    0.02097   0.02353   0.10224   0.10496   0.15448
     Eigenvalues ---    0.16000   0.16000   0.16958   0.33121   0.34318
     Eigenvalues ---    0.34361   0.37425   0.53961   0.55476   0.57329
 RFO step:  Lambda=-5.43434900D-03 EMin= 2.09705334D-02
 Quartic linear search produced a step of -0.21250.
 Iteration  1 RMS(Cart)=  0.08517046 RMS(Int)=  0.00345497
 Iteration  2 RMS(Cart)=  0.00402795 RMS(Int)=  0.00022491
 Iteration  3 RMS(Cart)=  0.00000813 RMS(Int)=  0.00022486
 Iteration  4 RMS(Cart)=  0.00000000 RMS(Int)=  0.00022486
 Variable       Old X    -DE/DX   Delta X   Delta X   Delta X     New X
                                 (Linear)    (Quad)   (Total)
    R1        2.06653  -0.00110   0.00401  -0.00881  -0.00480   2.06173
    R2        2.06106  -0.00113   0.00131  -0.00461  -0.00330   2.05776
    R3        2.06111  -0.00114   0.00131  -0.00461  -0.00331   2.05780
    R4        2.68731  -0.00046  -0.02116   0.03494   0.01378   2.70109
    R5        2.62227   0.02068  -0.02716   0.07288   0.04572   2.66799
    R6        1.82193   0.00552  -0.00166   0.01057   0.00891   1.83084
    A1        1.86033   0.00665   0.00191   0.02630   0.02800   1.88833
    A2        1.86009   0.00668   0.00184   0.02655   0.02818   1.88827
    A3        1.98429  -0.00793  -0.03188  -0.00279  -0.03488   1.94941
    A4        1.92041   0.00377   0.00694   0.01381   0.02119   1.94159
    A5        1.91841  -0.00415   0.00980  -0.03002  -0.02011   1.89830
    A6        1.91849  -0.00414   0.00978  -0.02991  -0.02002   1.89847
    A7        2.09929  -0.04004  -0.04009  -0.06537  -0.10545   1.99384
    A8        1.91512  -0.01203  -0.00095  -0.05611  -0.05706   1.85806
    D1       -0.00074  -0.00002   0.00007  -0.00019  -0.00011  -0.00085
    D2       -2.08432  -0.00032   0.01177  -0.01070   0.00054  -2.08379
    D3        2.08259   0.00033  -0.01172   0.01072  -0.00048   2.08211
    D4       -0.00020  -0.00001   0.00004  -0.00008  -0.00003  -0.00024
         Item               Value     Threshold  Converged?
 Maximum Force            0.040038     0.000450     NO 
 RMS     Force            0.011572     0.000300     NO 
 Maximum Displacement     0.220402     0.001800     NO 
 RMS     Displacement     0.087758     0.001200     NO 
 Predicted change in Energy=-3.160118D-03
 GradGradGradGradGradGradGradGradGradGradGradGradGradGradGradGradGradGrad

 Leave Link  103 at Mon Dec 13 17:13:48 2021, MaxMem= 1342177280 cpu:      22.6
 (Enter /LUSTRE/yoltla/nc/app/gaussian/09/g09/l202.exe)
                          Input orientation:                          
 ---------------------------------------------------------------------
 Center     Atomic      Atomic             Coordinates (Angstroms)
 Number     Number       Type             X           Y           Z
 ---------------------------------------------------------------------
      1          6           0        1.463093    0.987070    0.000041
      2          1           0        1.918619   -0.004306    0.000165
      3          1           0        1.786641    1.510013    0.898705
      4          1           0        1.786721    1.509763   -0.898762
      5          8           0        0.035678    0.912636    0.000131
      6          8           0       -0.476105   -0.403176   -0.000744
      7          1           0        0.290336   -0.995811   -0.001457
 ---------------------------------------------------------------------
                    Distance matrix (angstroms):
                    1          2          3          4          5
     1  C    0.000000
     2  H    1.091022   0.000000
     3  H    1.088920   1.765773   0.000000
     4  H    1.088940   1.765750   1.797467   0.000000
     5  O    1.429355   2.094337   2.056736   2.056872   0.000000
     6  O    2.386059   2.427715   3.096662   3.096152   1.411837
     7  H    2.303732   1.906408   3.054239   3.053233   1.925363
                    6          7
     6  O    0.000000
     7  H    0.968839   0.000000
 Symmetry turned off by external request.
 Stoichiometry    CH4O2
 Framework group  C1[X(CH4O2)]
 Deg. of freedom    15
 Full point group                 C1      NOp   1
 Rotational constants (GHZ):     46.6463058     10.2039311      8.8498436
 Leave Link  202 at Mon Dec 13 17:13:48 2021, MaxMem= 1342177280 cpu:       0.9
 (Enter /LUSTRE/yoltla/nc/app/gaussian/09/g09/l301.exe)
 Standard basis: 6-311+G(d,p) (5D, 7F)
 Ernie: Thresh=  0.10000D-02 Tol=  0.10000D-05 Strict=F.
 Integral buffers will be    131072 words long.
 Raffenetti 2 integral format.
 Two-electron integral symmetry is turned off.
    90 basis functions,   140 primitive gaussians,    93 cartesian basis functions
    13 alpha electrons       13 beta electrons
       nuclear repulsion energy        81.2263810707 Hartrees.
 IExCor= 3428 DFT=T Ex+Corr=M052X ExCW=0 ScaHFX=  0.560000
 ScaDFX=  0.440000  0.440000  1.000000  1.000000 ScalE2=  1.000000  1.000000
 IRadAn=      0 IRanWt=     -1 IRanGd=            0 ICorTp=0
 NAtoms=    7 NActive=    7 NUniq=    7 SFac= 1.00D+00 NAtFMM=   50 NAOKFM=F Big=F
 ------------------------------------------------------------------------------
 Polarizable Continuum Model (PCM)
 =================================
 Model                : PCM.
 Atomic radii         : SMD-Coulomb.
 Polarization charges : Total charges.
 Charge compensation  : None.
 Solution method      : Matrix inversion.
 Cavity type          : VdW (van der Waals Surface) (Alpha=1.000).
 Cavity algorithm     : GePol (No added spheres)
                        Default sphere list used, NSphG=    7.
                        Lebedev-Laikov grids with approx.  5.0 points / Ang**2.
                        Smoothing algorithm: Karplus/York (Gamma=1.0000).
                        Polarization charges: spherical gaussians, with
                                              point-specific exponents (IZeta= 3).
                        Self-potential: point-specific (ISelfS= 7).
                        Self-field    : sphere-specific E.n sum rule (ISelfD= 2).
 1st derivatives      : Analytical E(r).r(x)/FMM algorithm (CHGder, D1EAlg=3).
                        Cavity 1st derivative terms included.
 Solvent              : Water, Eps=  78.355300 Eps(inf)=   1.777849
 ------------------------------------------------------------------------------
 Spheres list:
 ISph  on   Nord    Re0     Alpha      Xe            Ye            Ze
    1   C      1    1.850   1.000      1.463093      0.987070      0.000041
    2   H      2    1.200   1.000      1.918619     -0.004306      0.000165
    3   H      3    1.200   1.000      1.786641      1.510013      0.898705
    4   H      4    1.200   1.000      1.786721      1.509763     -0.898762
    5   O      5    1.520   1.000      0.035678      0.912636      0.000131
    6   O      6    1.520   1.000     -0.476105     -0.403176     -0.000744
    7   H      7    1.200   1.000      0.290336     -0.995811     -0.001457
 ------------------------------------------------------------------------------
 GePol: Number of generator spheres                  =       7
 GePol: Total number of spheres                      =       7
 GePol: Number of exposed spheres                    =       7 (100.00%)
 GePol: Number of points                             =     534
 GePol: Average weight of points                     =       0.13
 GePol: Minimum weight of points                     =   0.10D-05
 GePol: Maximum weight of points                     =    0.21991
 GePol: Number of points with low weight             =      12
 GePol: Fraction of low-weight points (<1% of avg)   =       2.25%
 GePol: Cavity surface area                          =     71.969 Ang**2
 GePol: Cavity volume                                =     48.381 Ang**3
 ------------------------------------------------------------------------------
 Atomic radii for non-electrostatic terms: SMD-CDS.
 ------------------------------------------------------------------------------
 PCM non-electrostatic energy =         0.0036629227 Hartrees.
 Nuclear repulsion after PCM non-electrostatic terms =       81.2300439935 Hartrees.
 Leave Link  301 at Mon Dec 13 17:13:48 2021, MaxMem= 1342177280 cpu:       1.8
 (Enter /LUSTRE/yoltla/nc/app/gaussian/09/g09/l302.exe)
 NPDir=0 NMtPBC=     1 NCelOv=     1 NCel=       1 NClECP=     1 NCelD=      1
         NCelK=      1 NCelE2=     1 NClLst=     1 CellRange=     0.0.
 One-electron integrals computed using PRISM.
 NBasis=    90 RedAO= T  NBF=    90
 NBsUse=    90 1.00D-06 NBFU=    90
 Precomputing XC quadrature grid using
 IXCGrd= 2 IRadAn=           0 IRanWt=          -1 IRanGd=           0 AccXCQ= 0.00D+00.
 NRdTot=     449 NPtTot=       56956 NUsed=       60203 NTot=       60235
 NSgBfM=    93    93    93    93    93 NAtAll=     7     7.
 Leave Link  302 at Mon Dec 13 17:13:49 2021, MaxMem= 1342177280 cpu:       4.4
 (Enter /LUSTRE/yoltla/nc/app/gaussian/09/g09/l303.exe)
 DipDrv:  MaxL=1.
 Leave Link  303 at Mon Dec 13 17:13:49 2021, MaxMem= 1342177280 cpu:       3.2
 (Enter /LUSTRE/yoltla/nc/app/gaussian/09/g09/l401.exe)
 Initial guess read from the read-write file.
 B after Tr=     0.000000    0.000000    0.000000
         Rot=    1.000000    0.000000    0.000000    0.000000 Ang=   0.00 deg.
 Guess basis will be translated and rotated to current coordinates.
 Generating alternative initial guess.
 Harris functional with IExCor= 1009 diagonalized for initial guess.
 ExpMin= 4.38D-02 ExpMax= 8.59D+03 ExpMxC= 1.30D+03 IAcc=2 IRadAn=         0 AccDes= 0.00D+00
 HarFok:  IExCor= 1009 AccDes= 0.00D+00 IRadAn=         0 IDoV= 1
 ScaDFX=  1.000000  1.000000  1.000000  1.000000
 FoFCou: FMM=F IPFlag=           0 FMFlag=      100000 FMFlg1=           0
         NFxFlg=           0 DoJE=T BraDBF=F KetDBF=T FulRan=T
         Omega=  0.000000  0.000000  1.000000  0.000000  0.000000 ICntrl=     500 IOpCl=  0
         NMat0=    1 NMatS0=    1 NMatT0=    0 NMatD0=    1 NMtDS0=    0 NMtDT0=    0
         I1Cent=           4 NGrid=           0.
 Symmetry not used in FoFCou.
 Harris En= -190.731875223015    
 Leave Link  401 at Mon Dec 13 17:13:49 2021, MaxMem= 1342177280 cpu:      11.2
 (Enter /LUSTRE/yoltla/nc/app/gaussian/09/g09/l502.exe)
 Closed shell SCF:
 Requested convergence on RMS density matrix=1.00D-08 within 128 cycles.
 Requested convergence on MAX density matrix=1.00D-06.
 Requested convergence on             energy=1.00D-06.
 No special actions if energy rises.
 Using DIIS extrapolation, IDIIS=  1040.
 Two-electron integral symmetry not used.
        60127 words used for storage of precomputed grid.
 Keep R1 ints in memory in canonical form, NReq=12939818.
 IEnd=      106652 IEndB=      106652 NGot=  1342177280 MDV=  1332540977
 LenX=  1332540977 LenY=  1332531887
 Symmetry not used in FoFDir.
 MinBra= 0 MaxBra= 2 Meth= 1.
 IRaf=       0 NMat=   1 IRICut=       1 DoRegI=T DoRafI=F ISym2E= 0 JSym2E=0.

 Cycle   1  Pass 1  IDiag  1:
 E= -190.871277916501    
 DIIS: error= 5.62D-03 at cycle   1 NSaved=   1.
 NSaved= 1 IEnMin= 1 EnMin= -190.871277916501     IErMin= 1 ErrMin= 5.62D-03
 ErrMax= 5.62D-03 EMaxC= 1.00D-01 BMatC= 2.81D-03 BMatP= 2.81D-03
 IDIUse=3 WtCom= 9.44D-01 WtEn= 5.62D-02
 Coeff-Com:  0.100D+01
 Coeff-En:   0.100D+01
 Coeff:      0.100D+01
 Gap=     0.395 Goal=   None    Shift=    0.000
 GapD=    0.395 DampG=1.000 DampE=1.000 DampFc=1.0000 IDamp=-1.
 RMSDP=6.05D-04 MaxDP=6.28D-03              OVMax= 2.50D-02

 Cycle   2  Pass 1  IDiag  1:
 E= -190.875510789037     Delta-E=       -0.004232872535 Rises=F Damp=F
 DIIS: error= 1.08D-03 at cycle   2 NSaved=   2.
 NSaved= 2 IEnMin= 2 EnMin= -190.875510789037     IErMin= 2 ErrMin= 1.08D-03
 ErrMax= 1.08D-03 EMaxC= 1.00D-01 BMatC= 1.22D-04 BMatP= 2.81D-03
 IDIUse=3 WtCom= 9.89D-01 WtEn= 1.08D-02
 Coeff-Com: -0.142D+00 0.114D+01
 Coeff-En:   0.000D+00 0.100D+01
 Coeff:     -0.140D+00 0.114D+01
 Gap=     0.393 Goal=   None    Shift=    0.000
 RMSDP=1.66D-04 MaxDP=2.28D-03 DE=-4.23D-03 OVMax= 6.58D-03

 Cycle   3  Pass 1  IDiag  1:
 E= -190.875737597159     Delta-E=       -0.000226808122 Rises=F Damp=F
 DIIS: error= 5.85D-04 at cycle   3 NSaved=   3.
 NSaved= 3 IEnMin= 3 EnMin= -190.875737597159     IErMin= 3 ErrMin= 5.85D-04
 ErrMax= 5.85D-04 EMaxC= 1.00D-01 BMatC= 3.92D-05 BMatP= 1.22D-04
 IDIUse=3 WtCom= 9.94D-01 WtEn= 5.85D-03
 Coeff-Com: -0.792D-01 0.449D+00 0.630D+00
 Coeff-En:   0.000D+00 0.000D+00 0.100D+01
 Coeff:     -0.787D-01 0.446D+00 0.632D+00
 Gap=     0.392 Goal=   None    Shift=    0.000
 RMSDP=5.02D-05 MaxDP=1.04D-03 DE=-2.27D-04 OVMax= 1.86D-03

 Cycle   4  Pass 1  IDiag  1:
 E= -190.875766122558     Delta-E=       -0.000028525399 Rises=F Damp=F
 DIIS: error= 2.40D-04 at cycle   4 NSaved=   4.
 NSaved= 4 IEnMin= 4 EnMin= -190.875766122558     IErMin= 4 ErrMin= 2.40D-04
 ErrMax= 2.40D-04 EMaxC= 1.00D-01 BMatC= 5.50D-06 BMatP= 3.92D-05
 IDIUse=3 WtCom= 9.98D-01 WtEn= 2.40D-03
 Coeff-Com: -0.477D-02-0.350D-01 0.245D+00 0.795D+00
 Coeff-En:   0.000D+00 0.000D+00 0.000D+00 0.100D+01
 Coeff:     -0.476D-02-0.349D-01 0.244D+00 0.796D+00
 Gap=     0.392 Goal=   None    Shift=    0.000
 RMSDP=1.93D-05 MaxDP=4.72D-04 DE=-2.85D-05 OVMax= 7.72D-04

 Cycle   5  Pass 1  IDiag  1:
 E= -190.875770197620     Delta-E=       -0.000004075062 Rises=F Damp=F
 DIIS: error= 1.21D-04 at cycle   5 NSaved=   5.
 NSaved= 5 IEnMin= 5 EnMin= -190.875770197620     IErMin= 5 ErrMin= 1.21D-04
 ErrMax= 1.21D-04 EMaxC= 1.00D-01 BMatC= 7.26D-07 BMatP= 5.50D-06
 IDIUse=3 WtCom= 9.99D-01 WtEn= 1.21D-03
 Coeff-Com:  0.523D-02-0.579D-01 0.590D-01 0.367D+00 0.626D+00
 Coeff-En:   0.000D+00 0.000D+00 0.000D+00 0.000D+00 0.100D+01
 Coeff:      0.523D-02-0.579D-01 0.590D-01 0.367D+00 0.627D+00
 Gap=     0.392 Goal=   None    Shift=    0.000
 RMSDP=6.56D-06 MaxDP=1.19D-04 DE=-4.08D-06 OVMax= 2.89D-04

 Cycle   6  Pass 1  IDiag  1:
 E= -190.875770759896     Delta-E=       -0.000000562276 Rises=F Damp=F
 DIIS: error= 2.39D-05 at cycle   6 NSaved=   6.
 NSaved= 6 IEnMin= 6 EnMin= -190.875770759896     IErMin= 6 ErrMin= 2.39D-05
 ErrMax= 2.39D-05 EMaxC= 1.00D-01 BMatC= 5.67D-08 BMatP= 7.26D-07
 IDIUse=1 WtCom= 1.00D+00 WtEn= 0.00D+00
 Coeff-Com:  0.232D-02-0.179D-01-0.240D-02 0.454D-01 0.247D+00 0.726D+00
 Coeff:      0.232D-02-0.179D-01-0.240D-02 0.454D-01 0.247D+00 0.726D+00
 Gap=     0.392 Goal=   None    Shift=    0.000
 RMSDP=1.78D-06 MaxDP=5.33D-05 DE=-5.62D-07 OVMax= 6.39D-05

 Cycle   7  Pass 1  IDiag  1:
 E= -190.875770804006     Delta-E=       -0.000000044110 Rises=F Damp=F
 DIIS: error= 5.17D-06 at cycle   7 NSaved=   7.
 NSaved= 7 IEnMin= 7 EnMin= -190.875770804006     IErMin= 7 ErrMin= 5.17D-06
 ErrMax= 5.17D-06 EMaxC= 1.00D-01 BMatC= 2.72D-09 BMatP= 5.67D-08
 IDIUse=1 WtCom= 1.00D+00 WtEn= 0.00D+00
 Coeff-Com:  0.245D-03-0.135D-03-0.505D-02-0.214D-01 0.183D-01 0.174D+00
 Coeff-Com:  0.835D+00
 Coeff:      0.245D-03-0.135D-03-0.505D-02-0.214D-01 0.183D-01 0.174D+00
 Coeff:      0.835D+00
 Gap=     0.392 Goal=   None    Shift=    0.000
 RMSDP=6.45D-07 MaxDP=1.15D-05 DE=-4.41D-08 OVMax= 2.29D-05

 Cycle   8  Pass 1  IDiag  1:
 E= -190.875770806958     Delta-E=       -0.000000002951 Rises=F Damp=F
 DIIS: error= 2.13D-06 at cycle   8 NSaved=   8.
 NSaved= 8 IEnMin= 8 EnMin= -190.875770806958     IErMin= 8 ErrMin= 2.13D-06
 ErrMax= 2.13D-06 EMaxC= 1.00D-01 BMatC= 3.00D-10 BMatP= 2.72D-09
 IDIUse=1 WtCom= 1.00D+00 WtEn= 0.00D+00
 Coeff-Com: -0.202D-03 0.203D-02-0.733D-03-0.113D-01-0.226D-01-0.381D-01
 Coeff-Com:  0.232D+00 0.838D+00
 Coeff:     -0.202D-03 0.203D-02-0.733D-03-0.113D-01-0.226D-01-0.381D-01
 Coeff:      0.232D+00 0.838D+00
 Gap=     0.392 Goal=   None    Shift=    0.000
 RMSDP=2.09D-07 MaxDP=4.66D-06 DE=-2.95D-09 OVMax= 8.40D-06

 Cycle   9  Pass 1  IDiag  1:
 E= -190.875770807324     Delta-E=       -0.000000000366 Rises=F Damp=F
 DIIS: error= 2.54D-07 at cycle   9 NSaved=   9.
 NSaved= 9 IEnMin= 9 EnMin= -190.875770807324     IErMin= 9 ErrMin= 2.54D-07
 ErrMax= 2.54D-07 EMaxC= 1.00D-01 BMatC= 4.31D-12 BMatP= 3.00D-10
 IDIUse=1 WtCom= 1.00D+00 WtEn= 0.00D+00
 Coeff-Com:  0.873D-05-0.174D-03 0.267D-03 0.198D-02 0.116D-02-0.490D-02
 Coeff-Com: -0.590D-01-0.732D-01 0.113D+01
 Coeff:      0.873D-05-0.174D-03 0.267D-03 0.198D-02 0.116D-02-0.490D-02
 Coeff:     -0.590D-01-0.732D-01 0.113D+01
 Gap=     0.392 Goal=   None    Shift=    0.000
 RMSDP=6.62D-08 MaxDP=7.32D-07 DE=-3.66D-10 OVMax= 2.23D-06

 Cycle  10  Pass 1  IDiag  1:
 E= -190.875770807335     Delta-E=       -0.000000000012 Rises=F Damp=F
 DIIS: error= 3.03D-08 at cycle  10 NSaved=  10.
 NSaved=10 IEnMin=10 EnMin= -190.875770807335     IErMin=10 ErrMin= 3.03D-08
 ErrMax= 3.03D-08 EMaxC= 1.00D-01 BMatC= 1.35D-13 BMatP= 4.31D-12
 IDIUse=1 WtCom= 1.00D+00 WtEn= 0.00D+00
 Coeff-Com:  0.655D-05-0.702D-04 0.373D-04 0.391D-03 0.685D-03 0.634D-03
 Coeff-Com: -0.664D-02-0.254D-01-0.804D-02 0.104D+01
 Coeff:      0.655D-05-0.702D-04 0.373D-04 0.391D-03 0.685D-03 0.634D-03
 Coeff:     -0.664D-02-0.254D-01-0.804D-02 0.104D+01
 Gap=     0.392 Goal=   None    Shift=    0.000
 RMSDP=1.01D-08 MaxDP=1.16D-07 DE=-1.18D-11 OVMax= 2.98D-07

 Cycle  11  Pass 1  IDiag  1:
 E= -190.875770807336     Delta-E=       -0.000000000001 Rises=F Damp=F
 DIIS: error= 7.65D-09 at cycle  11 NSaved=  11.
 NSaved=11 IEnMin=11 EnMin= -190.875770807336     IErMin=11 ErrMin= 7.65D-09
 ErrMax= 7.65D-09 EMaxC= 1.00D-01 BMatC= 4.88D-15 BMatP= 1.35D-13
 IDIUse=1 WtCom= 1.00D+00 WtEn= 0.00D+00
 Coeff-Com: -0.130D-06 0.481D-05-0.733D-05-0.681D-04-0.345D-04 0.162D-03
 Coeff-Com:  0.250D-02 0.269D-02-0.489D-01 0.408D-01 0.100D+01
 Coeff:     -0.130D-06 0.481D-05-0.733D-05-0.681D-04-0.345D-04 0.162D-03
 Coeff:      0.250D-02 0.269D-02-0.489D-01 0.408D-01 0.100D+01
 Gap=     0.392 Goal=   None    Shift=    0.000
 RMSDP=1.63D-09 MaxDP=1.58D-08 DE=-9.66D-13 OVMax= 4.42D-08

 Error on total polarization charges =  0.03382
 SCF Done:  E(RM052X) =  -190.875770807     A.U. after   11 cycles
             Convg  =    0.1633D-08             -V/T =  2.0030
 KE= 1.903042493116D+02 PE=-6.120551323136D+02 EE= 1.496450682012D+02
 SMD-CDS (non-electrostatic) energy       (kcal/mol) =       2.30
 (included in total energy above)
 Leave Link  502 at Mon Dec 13 17:13:52 2021, MaxMem= 1342177280 cpu:      45.5
 (Enter /LUSTRE/yoltla/nc/app/gaussian/09/g09/l701.exe)
 Compute integral first derivatives.
 ... and contract with generalized density number  0.
 D1PCM: PCM CHGder 1st derivatives, ID1Alg=3 FixD1E=F DoIter=F DoCFld=F I1PDM=0.
 GePol: Maximum number of non-zero 1st derivatives   =     257
 Leave Link  701 at Mon Dec 13 17:13:52 2021, MaxMem= 1342177280 cpu:       6.8
 (Enter /LUSTRE/yoltla/nc/app/gaussian/09/g09/l702.exe)
 L702 exits ... SP integral derivatives will be done elsewhere.
 Leave Link  702 at Mon Dec 13 17:13:52 2021, MaxMem= 1342177280 cpu:       0.3
 (Enter /LUSTRE/yoltla/nc/app/gaussian/09/g09/l703.exe)
 Compute integral first derivatives, UseDBF=F ICtDFT=           0.
 Integral derivatives from FoFDir, PRISM(SPDF).
 Calling FoFJK, ICntrl=      2127 FMM=F ISym2X=0 I1Cent= 0 IOpClX= 0 NMat=1 NMatS=1 NMatT=0.
 FoFCou: FMM=F IPFlag=           0 FMFlag=      100000 FMFlg1=         800
         NFxFlg=           0 DoJE=F BraDBF=F KetDBF=F FulRan=T
         Omega=  0.000000  0.000000  1.000000  0.000000  0.000000 ICntrl=    2127 IOpCl=  0
         NMat0=    1 NMatS0=    1 NMatT0=    0 NMatD0=    1 NMtDS0=    0 NMtDT0=    0
         I1Cent=           0 NGrid=           0.
 Symmetry not used in FoFCou.
 Leave Link  703 at Mon Dec 13 17:13:53 2021, MaxMem= 1342177280 cpu:      11.5
 (Enter /LUSTRE/yoltla/nc/app/gaussian/09/g09/l716.exe)
 Dipole        = 1.77976461D+00-4.69092062D-01-6.10255399D-04
 -------------------------------------------------------------------
 Center     Atomic                   Forces (Hartrees/Bohr)
 Number     Number              X              Y              Z
 -------------------------------------------------------------------
      1        6           0.006368038   -0.003785618   -0.000023671
      2        1          -0.002306037   -0.000964595    0.000008439
      3        1          -0.001047385    0.000891908   -0.000731635
      4        1          -0.001053931    0.000889112    0.000737523
      5        8          -0.000644620    0.012937663    0.000018396
      6        8          -0.001597406   -0.011224033   -0.000010573
      7        1           0.000281342    0.001255563    0.000001521
 -------------------------------------------------------------------
 Cartesian Forces:  Max     0.012937663 RMS     0.004163275
 Leave Link  716 at Mon Dec 13 17:13:53 2021, MaxMem= 1342177280 cpu:       0.3
 (Enter /LUSTRE/yoltla/nc/app/gaussian/09/g09/l103.exe)

 GradGradGradGradGradGradGradGradGradGradGradGradGradGradGradGradGradGrad
[...]
      6        8          -0.000012044    0.000004058   -0.000082335
      7        1          -0.000023218    0.000046927   -0.000003095
 -------------------------------------------------------------------
 Cartesian Forces:  Max     0.000092099 RMS     0.000043611
 Force constants in Cartesian coordinates: 
                1             2             3             4             5 
      1  0.477869D+00
      2 -0.541659D-01  0.619049D+00
      3 -0.252999D-01 -0.302451D-01  0.613486D+00
      4 -0.152656D+00  0.113215D+00  0.630311D-01  0.181425D+00
      5  0.123051D+00 -0.187438D+00 -0.705225D-01 -0.127697D+00  0.190710D+00
      6  0.648823D-01 -0.729743D-01 -0.950210D-01 -0.652251D-01  0.768184D-01
      7 -0.492233D-01 -0.100896D-02 -0.688129D-02  0.436212D-02  0.888504D-03
      8  0.252040D-02 -0.549852D-01 -0.236853D-01 -0.133090D-02 -0.235703D-03
      9 -0.157327D-01 -0.259999D-01 -0.320306D+00 -0.932142D-04  0.999682D-04
     10 -0.550735D-01 -0.174405D-01  0.932160D-02  0.542266D-02  0.167823D-01
     11 -0.290596D-01 -0.267300D+00  0.112577D+00 -0.279652D-02 -0.153386D-01
     12  0.163043D-01  0.117745D+00 -0.111918D+00 -0.255100D-02 -0.110568D-01
     13 -0.217503D+00  0.861363D-02 -0.675217D-01 -0.421693D-01 -0.132212D-01
     14 -0.365258D-01 -0.759162D-01 -0.724703D-02  0.168395D-01  0.829315D-02
     15 -0.400680D-01  0.104661D-01 -0.857639D-01  0.539666D-02  0.521957D-02
     16 -0.643564D-03 -0.481267D-01  0.242864D-01  0.333865D-02  0.159604D-03
     17 -0.728749D-02 -0.329949D-01  0.149346D-01  0.208354D-02  0.431358D-02
     18 -0.258117D-02  0.100689D-02 -0.226446D-02 -0.241514D-03 -0.747672D-03
     19 -0.276918D-02 -0.108663D-02  0.306378D-02  0.277122D-03  0.375228D-04
     20  0.146774D-02 -0.415039D-03  0.418883D-02 -0.313273D-03 -0.304827D-03
     21  0.249518D-02  0.127441D-05  0.178613D-02 -0.316863D-03  0.189087D-03
                6             7             8             9            10 
      6  0.905545D-01
      7  0.195724D-01  0.613109D-01
      8 -0.218816D-01  0.457599D-02  0.493906D-01
      9 -0.888278D-02  0.254666D-01  0.297297D-01  0.341419D+00
     10 -0.103364D-01  0.138212D-02  0.281714D-02 -0.622600D-04  0.626647D-01
     11  0.946912D-02  0.165540D-02  0.570587D-02 -0.179292D-02  0.369720D-01
     12  0.666082D-02  0.405404D-02  0.273291D-01 -0.107828D-01 -0.154070D-01
     13 -0.974797D-02 -0.202462D-01 -0.102447D-01 -0.940478D-02 -0.661591D-02
     14  0.966847D-02 -0.928757D-02 -0.161814D-02 -0.120323D-03 -0.323689D-01
     15  0.778996D-02 -0.430384D-01 -0.878634D-02 -0.403108D-02  0.158720D-01
     16  0.861857D-03  0.240042D-02  0.177776D-02  0.136981D-03 -0.778710D-02
     17 -0.103093D-02  0.295638D-02  0.121475D-02 -0.618711D-03 -0.601874D-02
     18 -0.752673D-03  0.225635D-03 -0.270094D-02  0.345314D-02  0.123086D-02
     19 -0.707860D-05  0.138440D-04 -0.115720D-03 -0.310638D-03  0.709070D-05
     20 -0.691198D-04  0.220253D-03  0.527762D-03 -0.129784D-02 -0.743335D-03
     21 -0.348885D-03  0.601028D-03 -0.462544D-05 -0.870289D-03 -0.618803D-03
               11            12            13            14            15 
     11  0.287076D+00
     12 -0.123579D+00  0.110444D+00
     13 -0.416765D-02  0.204102D-04  0.345886D+00
     14 -0.118212D-01 -0.693723D-02  0.795147D-01  0.313369D+00
     15  0.471806D-02  0.334771D-02  0.556180D-01 -0.117427D+00  0.180915D+00
     16 -0.247626D-02 -0.199651D-02 -0.585773D-01 -0.196849D-01  0.479911D-02
     17  0.189565D-02 -0.291396D-02 -0.373206D-01 -0.222421D+00  0.562844D-01
     18 -0.108828D-02  0.239019D-02  0.299975D-01  0.120551D+00 -0.927952D-01
     19 -0.127412D-03 -0.424224D-03 -0.774529D-03  0.151300D-02  0.142067D-02
     20 -0.218588D-03 -0.587107D-03 -0.231742D-01 -0.988519D-02  0.495256D-01
     21 -0.303426D-03 -0.142132D-03  0.103857D-02  0.151245D-02 -0.946236D-02
               16            17            18            19            20 
     16  0.136450D+00
     17  0.659325D-02  0.331522D+00
     18 -0.201002D+00  0.312389D-01  0.492398D+00
     19 -0.751811D-01  0.389937D-01  0.172370D+00  0.784268D-01
     20  0.617572D-01 -0.835299D-01 -0.148260D+00 -0.392144D-01  0.938257D-01
     21  0.172914D+00 -0.978943D-01 -0.402429D+00 -0.176113D+00  0.964995D-01
               21 
     21  0.411466D+00
 Force constants in internal coordinates: 
                1             2             3             4             5 
      1  0.352437D+00
      2  0.325802D-02  0.346771D+00
      3  0.243088D-02  0.254696D-02  0.356079D+00
      4  0.126274D-01  0.135551D-01  0.833772D-02  0.326720D+00
      5  0.877183D-03  0.225552D-02 -0.247273D-02  0.125121D-01  0.338111D+00
      6 -0.285042D-03 -0.855934D-03 -0.397647D-03  0.309344D-02 -0.260350D-02
      7  0.661272D-02  0.664775D-02 -0.414721D-02 -0.278909D-01  0.148810D-03
      8  0.594128D-02 -0.469185D-02  0.410412D-02 -0.258052D-01 -0.259064D-03
      9  0.387759D-03 -0.507784D-02 -0.535206D-02  0.327968D-01 -0.768278D-02
     10 -0.457375D-02  0.552723D-02  0.486579D-02 -0.260801D-01 -0.623063D-03
     11 -0.482883D-02  0.127836D-02 -0.480138D-02  0.320803D-01 -0.812781D-02
     12 -0.419198D-02 -0.432037D-02  0.587431D-02  0.175825D-01  0.172607D-01
     13 -0.536815D-02 -0.277910D-02  0.807724D-02  0.296266D-01  0.573584D-01
     14 -0.104201D-03  0.188653D-02  0.649042D-04 -0.679197D-03  0.639303D-01
     15 -0.564618D-03  0.601254D-02 -0.610188D-02  0.435319D-02 -0.556326D-02
     16 -0.590788D-02  0.190055D-03  0.599290D-02 -0.429052D-02  0.493310D-02
     17  0.426487D-02 -0.452905D-02 -0.637847D-03  0.425958D-03  0.241591D-04
     18 -0.115432D-03  0.108946D-02  0.100043D-03  0.180103D-02  0.469621D-04
                6             7             8             9            10 
      6  0.512949D+00
      7  0.505583D-04  0.717207D-01
      8  0.213393D-03  0.445542D-02  0.689577D-01
      9 -0.215625D-03 -0.424161D-01 -0.369606D-01  0.146984D+00
     10 -0.665445D-04  0.463773D-02  0.389306D-02 -0.390645D-02  0.673214D-01
     11  0.147226D-02 -0.408438D-01 -0.349011D-02 -0.343175D-01 -0.358594D-01
     12 -0.152002D-02 -0.270502D-02 -0.387801D-01 -0.277634D-01 -0.379885D-01
     13  0.102079D-02  0.481151D-02 -0.459170D-02 -0.131392D-01 -0.566791D-02
     14 -0.535114D-02 -0.683492D-03 -0.558930D-03  0.240185D-03 -0.126487D-03
     15  0.493099D-03  0.173160D-01 -0.211035D-01  0.148103D-02 -0.662377D-03
     16 -0.420093D-03 -0.169295D-01  0.604426D-03 -0.211037D-01  0.203610D-01
     17 -0.224483D-03 -0.368569D-03  0.196139D-01  0.163611D-01 -0.195464D-01
     18  0.254063D-02  0.600173D-03  0.401122D-03 -0.151515D-03 -0.562099D-03
               11            12            13            14            15 
     11  0.143515D+00
     12 -0.271183D-01  0.140445D+00
     13 -0.152530D-01  0.349709D-01  0.337193D+00
     14 -0.123239D-02  0.251363D-02  0.516351D-02  0.227502D+00
     15  0.212158D-01 -0.202954D-01 -0.547142D-02  0.547439D-03  0.274887D-01
     16 -0.105417D-02  0.202047D-01  0.764308D-02  0.208065D-02 -0.970336D-02
     17 -0.155709D-01 -0.542497D-03  0.227754D-02  0.143236D-02 -0.813998D-02
     18 -0.190998D-02  0.164710D-02  0.803879D-02  0.828049D-02 -0.339351D-03
               16            17            18 
     16  0.266318D-01
     17 -0.820479D-02  0.229416D-01
     18  0.296540D-03  0.989581D-03  0.807083D-02
 Leave Link  716 at Mon Dec 13 17:18:43 2021, MaxMem= 1342177280 cpu:       3.0
 (Enter /LUSTRE/yoltla/nc/app/gaussian/09/g09/l103.exe)

 GradGradGradGradGradGradGradGradGradGradGradGradGradGradGradGradGradGrad
 Berny optimization.
 Red2BG is reusing G-inverse.
 Internal  Forces:  Max     0.000056918 RMS     0.000032171
 Search for a local minimum.
 Step number   1 out of a maximum of    2
 All quantities printed in internal units (Hartrees-Bohrs-Radians)
 Second derivative matrix not updated -- analytic derivatives used.
 The second derivative matrix:
                          R1        R2        R3        R4        R5
           R1           0.35244
           R2           0.00326   0.34677
           R3           0.00243   0.00255   0.35608
           R4           0.01263   0.01356   0.00834   0.32672
           R5           0.00088   0.00226  -0.00247   0.01251   0.33811
           R6          -0.00029  -0.00086  -0.00040   0.00309  -0.00260
           A1           0.00661   0.00665  -0.00415  -0.02789   0.00015
           A2           0.00594  -0.00469   0.00410  -0.02581  -0.00026
           A3           0.00039  -0.00508  -0.00535   0.03280  -0.00768
           A4          -0.00457   0.00553   0.00487  -0.02608  -0.00062
           A5          -0.00483   0.00128  -0.00480   0.03208  -0.00813
           A6          -0.00419  -0.00432   0.00587   0.01758   0.01726
           A7          -0.00537  -0.00278   0.00808   0.02963   0.05736
           A8          -0.00010   0.00189   0.00006  -0.00068   0.06393
           D1          -0.00056   0.00601  -0.00610   0.00435  -0.00556
           D2          -0.00591   0.00019   0.00599  -0.00429   0.00493
           D3           0.00426  -0.00453  -0.00064   0.00043   0.00002
           D4          -0.00012   0.00109   0.00010   0.00180   0.00005
                          R6        A1        A2        A3        A4
           R6           0.51295
           A1           0.00005   0.07172
           A2           0.00021   0.00446   0.06896
           A3          -0.00022  -0.04242  -0.03696   0.14698
           A4          -0.00007   0.00464   0.00389  -0.00391   0.06732
           A5           0.00147  -0.04084  -0.00349  -0.03432  -0.03586
           A6          -0.00152  -0.00271  -0.03878  -0.02776  -0.03799
           A7           0.00102   0.00481  -0.00459  -0.01314  -0.00567
           A8          -0.00535  -0.00068  -0.00056   0.00024  -0.00013
           D1           0.00049   0.01732  -0.02110   0.00148  -0.00066
           D2          -0.00042  -0.01693   0.00060  -0.02110   0.02036
           D3          -0.00022  -0.00037   0.01961   0.01636  -0.01955
           D4           0.00254   0.00060   0.00040  -0.00015  -0.00056
                          A5        A6        A7        A8        D1
           A5           0.14352
           A6          -0.02712   0.14044
           A7          -0.01525   0.03497   0.33719
           A8          -0.00123   0.00251   0.00516   0.22750
           D1           0.02122  -0.02030  -0.00547   0.00055   0.02749
           D2          -0.00105   0.02020   0.00764   0.00208  -0.00970
           D3          -0.01557  -0.00054   0.00228   0.00143  -0.00814
           D4          -0.00191   0.00165   0.00804   0.00828  -0.00034
                          D2        D3        D4
           D2           0.02663
           D3          -0.00820   0.02294
           D4           0.00030   0.00099   0.00807
 ITU=  0
     Eigenvalues ---    0.00727   0.00838   0.08328   0.08492   0.13698
     Eigenvalues ---    0.17131   0.19075   0.19606   0.29561   0.33786
     Eigenvalues ---    0.34707   0.35532   0.36723   0.42659   0.51322
 Angle between quadratic step and forces=  66.59 degrees.
 Linear search not attempted -- first point.
 Iteration  1 RMS(Cart)=  0.00091387 RMS(Int)=  0.00000057
 Iteration  2 RMS(Cart)=  0.00000059 RMS(Int)=  0.00000001
 Variable       Old X    -DE/DX   Delta X   Delta X   Delta X     New X
                                 (Linear)    (Quad)   (Total)
    R1        2.05775   0.00002   0.00000   0.00007   0.00007   2.05783
    R2        2.05968  -0.00004   0.00000  -0.00013  -0.00013   2.05955
    R3        2.05653   0.00002   0.00000   0.00004   0.00004   2.05657
    R4        2.69483  -0.00002   0.00000  -0.00002  -0.00002   2.69480
    R5        2.68490  -0.00005   0.00000  -0.00015  -0.00015   2.68475
    R6        1.82851   0.00002   0.00000   0.00003   0.00003   1.82855
    A1        1.93574   0.00002   0.00000   0.00009   0.00009   1.93584
    A2        1.92528  -0.00003   0.00000  -0.00043  -0.00043   1.92485
    A3        1.92419  -0.00003   0.00000  -0.00021  -0.00021   1.92398
    A4        1.92212   0.00004   0.00000   0.00048   0.00048   1.92260
    A5        1.92378  -0.00002   0.00000  -0.00005  -0.00005   1.92373
    A6        1.83012   0.00003   0.00000   0.00012   0.00012   1.83024
    A7        1.87826   0.00006   0.00000   0.00020   0.00020   1.87847
    A8        1.79916  -0.00005   0.00000  -0.00017  -0.00017   1.79899
    D1        1.04691  -0.00001   0.00000  -0.00171  -0.00171   1.04520
    D2       -1.09587   0.00001   0.00000  -0.00165  -0.00165  -1.09752
    D3        3.11908  -0.00004   0.00000  -0.00226  -0.00226   3.11682
    D4        1.59246   0.00000   0.00000   0.00004   0.00004   1.59250
         Item               Value     Threshold  Converged?
 Maximum Force            0.000057     0.000450     YES
 RMS     Force            0.000032     0.000300     YES
 Maximum Displacement     0.001470     0.001800     YES
 RMS     Displacement     0.000914     0.001200     YES
 Predicted change in Energy=-9.130921D-08
 Optimization completed.
    -- Stationary point found.
                           ----------------------------
                           !   Optimized Parameters   !
                           ! (Angstroms and Degrees)  !
 --------------------------                            --------------------------
 ! Name  Definition              Value          Derivative Info.                !
 --------------------------------------------------------------------------------
 ! R1    R(1,2)                  1.0889         -DE/DX =    0.0                 !
 ! R2    R(1,3)                  1.0899         -DE/DX =    0.0                 !
 ! R3    R(1,4)                  1.0883         -DE/DX =    0.0                 !
 ! R4    R(1,5)                  1.426          -DE/DX =    0.0                 !
 ! R5    R(5,6)                  1.4208         -DE/DX =    0.0                 !
 ! R6    R(6,7)                  0.9676         -DE/DX =    0.0                 !
 ! A1    A(2,1,3)              110.9099         -DE/DX =    0.0                 !
 ! A2    A(2,1,4)              110.3106         -DE/DX =    0.0                 !
 ! A3    A(2,1,5)              110.2479         -DE/DX =    0.0                 !
 ! A4    A(3,1,4)              110.1292         -DE/DX =    0.0                 !
 ! A5    A(3,1,5)              110.2245         -DE/DX =    0.0                 !
 ! A6    A(4,1,5)              104.8581         -DE/DX =    0.0                 !
 ! A7    A(1,5,6)              107.6166         -DE/DX =    0.0001              !
 ! A8    A(5,6,7)              103.0843         -DE/DX =   -0.0001              !
 ! D1    D(2,1,5,6)             59.9833         -DE/DX =    0.0                 !
 ! D2    D(3,1,5,6)            -62.789          -DE/DX =    0.0                 !
 ! D3    D(4,1,5,6)            178.7099         -DE/DX =    0.0                 !
 ! D4    D(1,5,6,7)             91.2412         -DE/DX =    0.0                 !
 --------------------------------------------------------------------------------
 GradGradGradGradGradGradGradGradGradGradGradGradGradGradGradGradGradGrad

 Leave Link  103 at Mon Dec 13 17:18:43 2021, MaxMem= 1342177280 cpu:      12.0
 (Enter /LUSTRE/yoltla/nc/app/gaussian/09/g09/l9999.exe)
 1\1\GINC-NC126\Freq\RM052X\6-311+G(d,p)\C1H4O2\EDGL\13-Dec-2021\0\\#P 
 Geom=AllCheck Guess=TCheck SCRF=Check GenChk RM052X/6-311+G(d,p) Freq\
 \CH3OOH_4\\0,1\C,1.5120052832,0.9529264329,-0.1163201755\H,2.219598989
 5,0.2214330047,-0.5035775221\H,1.6182279557,1.0634652842,0.9627796027\
 H,1.6552370919,1.9136245856,-0.6071044653\O,0.1778285784,0.5703489311,
 -0.4437308108\O,-0.0625800447,-0.6993777021,0.1467290376\H,-0.43166313
 41,-0.4722909264,1.0118726534\\Version=EM64L-G09RevB.01\HF=-190.888405
 5\RMSD=4.924e-10\RMSF=4.361e-05\ZeroPoint=0.0559252\Thermal=0.0600736\
 Dipole=0.5980276,0.5370972,0.9915789\DipoleDeriv=0.7546011,0.1158862,0
 .0805664,0.0762274,0.2539954,0.1158962,0.0996598,0.1165944,0.3577533,-
 0.053068,0.0136799,0.0233052,0.131889,-0.0111662,-0.0784505,0.0410044,
 -0.0988772,0.0621347,0.0121933,-0.040599,0.0473462,-0.0070124,0.108076
 7,-0.0120765,-0.0608353,-0.049883,-0.1385006,0.0454625,-0.0309928,-0.0
 159762,-0.0368135,-0.0206976,0.0789508,-0.0169163,0.0826539,0.0886362,
 -0.6374127,0.0099532,-0.0696392,0.0181738,-0.2141892,-0.1116062,-0.118
 1407,-0.2815956,-0.3695488,-0.6070073,-0.0836681,-0.0861841,-0.1776675
 ,-0.3637906,0.0576249,0.0409186,0.2632509,-0.3892475,0.4852311,0.01574
 07,0.0205818,-0.0047968,0.2477715,-0.0503388,0.0143095,-0.0321433,0.38
 87727\Polar=28.4546981,3.7922508,32.47456,-1.7178716,-3.2410669,27.916
 0576\PG=C01 [X(C1H4O2)]\NImag=0\\0.47786872,-0.05416593,0.61904862,-0.
 02529992,-0.03024508,0.61348641,-0.15265612,0.11321508,0.06303108,0.18
 142491,0.12305068,-0.18743775,-0.07052251,-0.12769742,0.19071012,0.064
 88227,-0.07297430,-0.09502097,-0.06522514,0.07681837,0.09055453,-0.049
 22326,-0.00100896,-0.00688129,0.00436212,0.00088850,0.01957243,0.06131
 092,0.00252040,-0.05498515,-0.02368532,-0.00133090,-0.00023570,-0.0218
 8161,0.00457599,0.04939061,-0.01573267,-0.02599988,-0.32030552,-0.0000
 9321,0.00009997,-0.00888278,0.02546658,0.02972970,0.34141933,-0.055073
 52,-0.01744052,0.00932160,0.00542266,0.01678234,-0.01033637,0.00138212
 ,0.00281714,-0.00006226,0.06266467,-0.02905958,-0.26729951,0.11257650,
 -0.00279652,-0.01533856,0.00946912,0.00165540,0.00570587,-0.00179292,0
 .03697202,0.28707631,0.01630427,0.11774503,-0.11191774,-0.00255100,-0.
 01105681,0.00666082,0.00405404,0.02732914,-0.01078280,-0.01540699,-0.1
 2357907,0.11044396,-0.21750307,0.00861363,-0.06752169,-0.04216934,-0.0
 1322123,-0.00974797,-0.02024617,-0.01024467,-0.00940478,-0.00661591,-0
 .00416765,0.00002041,0.34588629,-0.03652582,-0.07591623,-0.00724703,0.
 01683948,0.00829315,0.00966847,-0.00928757,-0.00161814,-0.00012032,-0.
 03236891,-0.01182117,-0.00693723,0.07951472,0.31336862,-0.04006797,0.0
 1046607,-0.08576386,0.00539666,0.00521957,0.00778996,-0.04303843,-0.00
 878634,-0.00403108,0.01587196,0.00471806,0.00334771,0.05561800,-0.1174
 2735,0.18091482,-0.00064356,-0.04812667,0.02428645,0.00333865,0.000159
 60,0.00086186,0.00240042,0.00177776,0.00013698,-0.00778710,-0.00247626
 ,-0.00199651,-0.05857727,-0.01968490,0.00479911,0.13644998,-0.00728749
 ,-0.03299494,0.01493461,0.00208354,0.00431358,-0.00103093,0.00295638,0
 .00121475,-0.00061871,-0.00601874,0.00189565,-0.00291396,-0.03732061,-
 0.22242105,0.05628437,0.00659325,0.33152189,-0.00258117,0.00100689,-0.
 00226446,-0.00024151,-0.00074767,-0.00075267,0.00022564,-0.00270094,0.
 00345314,0.00123086,-0.00108828,0.00239019,0.02999746,0.12055101,-0.09
 279519,-0.20100170,0.03123890,0.49239787,-0.00276918,-0.00108663,0.003
 06378,0.00027712,0.00003752,-0.00000708,0.00001384,-0.00011572,-0.0003
 1064,0.00000709,-0.00012741,-0.00042422,-0.00077453,0.00151300,0.00142
 067,-0.07518111,0.03899367,0.17237043,0.07842676,0.00146774,-0.0004150
 4,0.00418883,-0.00031327,-0.00030483,-0.00006912,0.00022025,0.00052776
 ,-0.00129784,-0.00074333,-0.00021859,-0.00058711,-0.02317418,-0.009885
 19,0.04952562,0.06175722,-0.08352987,-0.14825991,-0.03921444,0.0938257
 5,0.00249518,0.00000127,0.00178613,-0.00031686,0.00018909,-0.00034888,
 0.00060103,-0.00000463,-0.00087029,-0.00061880,-0.00030343,-0.00014213
 ,0.00103857,0.00151245,-0.00946236,0.17291382,-0.09789429,-0.40242888,
 -0.17611294,0.09649952,0.41146642\\0.00002528,-0.00006544,-0.00009210,
 -0.00000500,0.00002497,0.00002035,0.00002278,0.00003697,0.00002854,-0.
 00005510,0.00001093,0.00003633,-0.00002322,0.00004356,-0.00007855,0.00
 001204,-0.00000406,0.00008233,0.00002322,-0.00004693,0.00000309\\\@


 The mind is not a vessel to be filled but a fire to be kindled.
                                  -- Plutarch
 Job cpu time:  0 days  0 hours  6 minutes 31.6 seconds.
 File lengths (MBytes):  RWF=     19 Int=      0 D2E=      0 Chk=      3 Scr=      1
 Normal termination of Gaussian 09 at Mon Dec 13 17:18:44 2021.
