 Entering Gaussian System, Link 0=g09
 Initial command:
 /LUSTRE/yoltla/nc/app/gaussian/09/g09/l1.exe /tmp/SCRATCH/edgl/869530/Gau-54635.inp -scrdir=/tmp/SCRATCH/edgl/869530/
 Entering Link 1 = /LUSTRE/yoltla/nc/app/gaussian/09/g09/l1.exe PID=     54636.
  
 Copyright (c) 1988,1990,1992,1993,1995,1998,2003,2009,2010,
            Gaussian, Inc.  All Rights Reserved.
  
 This is part of the Gaussian(R) 09 program.  It is based on
 the Gaussian(R) 03 system (copyright 2003, Gaussian, Inc.),
 the Gaussian(R) 98 system (copyright 1998, Gaussian, Inc.),
 the Gaussian(R) 94 system (copyright 1995, Gaussian, Inc.),
 the Gaussian 92(TM) system (copyright 1992, Gaussian, Inc.),
 the Gaussian 90(TM) system (copyright 1990, Gaussian, Inc.),
 the Gaussian 88(TM) system (copyright 1988, Gaussian, Inc.),
 the Gaussian 86(TM) system (copyright 1986, Carnegie Mellon
 University), and the Gaussian 82(TM) system (copyright 1983,
 Carnegie Mellon University). Gaussian is a federally registered
 trademark of Gaussian, Inc.
  
 This software contains proprietary and confidential information,
 including trade secrets, belonging to Gaussian, Inc.
  
 This software is provided under written license and may be
 used, copied, transmitted, or stored only in accord with that
 written license.
  
 The following legend is applicable only to US Government
 contracts under FAR:
  
                    RESTRICTED RIGHTS LEGEND
  
 Use, reproduction and disclosure by the US Government is
 subject to restrictions as set forth in subparagraphs (a)
 and (c) of the Commercial Computer Software - Restricted
 Rights clause in FAR 52.227-19.
  
 Gaussian, Inc.
 340 Quinnipiac St., Bldg. 40, Wallingford CT 06492
  
  
 ---------------------------------------------------------------
 Warning -- This program may not be used in any manner that
 competes with the business of Gaussian, Inc. or will provide
 assistance to any competitor of Gaussian, Inc.  The licensee
 of this program is prohibited from giving any competitor of
 Gaussian, Inc. access to this program.  By using this program,
 the user acknowledges that Gaussian, Inc. is engaged in the
 business of creating and licensing software in the field of
 computational chemistry and represents and warrants to the
 licensee that it is not a competitor of Gaussian, Inc. and that
 it will not use this program in any manner prohibited above.
 ---------------------------------------------------------------
  

 Cite this work as:
 Gaussian 09, Revision B.01,
 M. J. Frisch, G. W. Trucks, H. B. Schlegel, G. E. Scuseria, 
 M. A. Robb, J. R. Cheeseman, G. Scalmani, V. Barone, B. Mennucci, 
 G. A. Petersson, H. Nakatsuji, M. Caricato, X. Li, H. P. Hratchian, 
 A. F. Izmaylov, J. Bloino, G. Zheng, J. L. Sonnenberg, M. Hada, 
 M. Ehara, K. Toyota, R. Fukuda, J. Hasegawa, M. Ishida, T. Nakajima, 
 Y. Honda, O. Kitao, H. Nakai, T. Vreven, J. A. Montgomery, Jr., 
 J. E. Peralta, F. Ogliaro, M. Bearpark, J. J. Heyd, E. Brothers, 
 K. N. Kudin, V. N. Staroverov, T. Keith, R. Kobayashi, J. Normand, 
 K. Raghavachari, A. Rendell, J. C. Burant, S. S. Iyengar, J. Tomasi, 
 M. Cossi, N. Rega, J. M. Millam, M. Klene, J. E. Knox, J. B. Cross, 
 V. Bakken, C. Adamo, J. Jaramillo, R. Gomperts, R. E. Stratmann, 
 O. Yazyev, A. J. Austin, R. Cammi, C. Pomelli, J. W. Ochterski, 
 R. L. Martin, K. Morokuma, V. G. Zakrzewski, G. A. Voth, 
 P. Salvador, J. J. Dannenberg, S. Dapprich, A. D. Daniels, 
 O. Farkas, J. B. Foresman, J. V. Ortiz, J. Cioslowski, 
 and D. J. Fox, Gaussian, Inc., Wallingford CT, 2010.
 
 ******************************************
 Gaussian 09:  EM64L-G09RevB.01 12-Aug-2010
                13-Dec-2021 
 ******************************************
 %nprocshared=20
 Will use up to   20 processors via shared memory.
 %mem=10GB
 %chk=CCl3OOH.chk
 --------------------------------------------------------------
 #p opt freq 6-311+g(d,p) scrf=(smd,solvent=water) nosymm m052x
 --------------------------------------------------------------
 1/14=-1,18=20,19=15,26=3,38=1/1,3;
 2/9=110,12=2,15=1,17=6,18=5,40=1/2;
 3/5=4,6=6,7=111,11=2,16=1,25=1,30=1,70=32201,71=1,72=1,74=-38/1,2,3;
 4//1;
 5/5=2,38=5,53=1/2;
 6/7=2,8=2,9=2,10=2,28=1/1;
 7/30=1/1,2,3,16;
 1/14=-1,18=20,19=15/3(2);
 2/9=110,15=1/2;
 99//99;
 2/9=110,15=1/2;
 3/5=4,6=6,7=111,11=2,16=1,25=1,30=1,70=32205,71=1,72=1,74=-38/1,2,3;
 4/5=5,16=3/1;
 5/5=2,38=5,53=1/2;
 7/30=1/1,2,3,16;
 1/14=-1,18=20,19=15/3(-5);
 2/9=110,15=1/2;
 6/7=2,8=2,9=2,10=2,19=2,28=1/1;
 99/9=1/99;
 Leave Link    1 at Mon Dec 13 16:56:34 2021, MaxMem= 1342177280 cpu:       1.3
 (Enter /LUSTRE/yoltla/nc/app/gaussian/09/g09/l101.exe)
 ---------
 CCl3OOH_1
 ---------
 Symbolic Z-matrix:
 Charge =  0 Multiplicity = 1
 C                     1.39144   0.99202   0.00008 
 O                     0.02405   0.91858   0.00003 
 O                    -0.34858  -0.34773  -0.00078 
 H                     0.42937  -0.91022  -0.00114 
 Cl                    1.94025  -0.68022  -0.00031 
 Cl                    2.02711   1.74513   1.45827 
 Cl                    2.02722   1.74478  -1.45826 
 
 NAtoms=      7 NQM=      7 NQMF=      0 NMic=      0 NMicF=      0 NTot=      7.
                    Isotopes and Nuclear Properties:
 (Nuclear quadrupole moments (NQMom) in fm**2, nuclear magnetic moments (NMagM)
  in nuclear magnetons)

  Atom         1           2           3           4           5           6           7
 IAtWgt=          12          16          16           1          35          35          35
 AtmWgt=  12.0000000  15.9949146  15.9949146   1.0078250  34.9688527  34.9688527  34.9688527
 NucSpn=           0           0           0           1           3           3           3
 AtZEff=   0.0000000   0.0000000   0.0000000   0.0000000   0.0000000   0.0000000   0.0000000
 NQMom=    0.0000000   0.0000000   0.0000000   0.0000000  -8.1650000  -8.1650000  -8.1650000
 NMagM=    0.0000000   0.0000000   0.0000000   2.7928460   0.8218740   0.8218740   0.8218740
 Leave Link  101 at Mon Dec 13 16:56:34 2021, MaxMem= 1342177280 cpu:       1.9
 (Enter /LUSTRE/yoltla/nc/app/gaussian/09/g09/l103.exe)

 GradGradGradGradGradGradGradGradGradGradGradGradGradGradGradGradGradGrad
 Berny optimization.
 Initialization pass.
                           ----------------------------
                           !    Initial Parameters    !
                           ! (Angstroms and Degrees)  !
 --------------------------                            --------------------------
 ! Name  Definition              Value          Derivative Info.                !
 --------------------------------------------------------------------------------
 ! R1    R(1,2)                  1.3694         estimate D2E/DX2                !
 ! R2    R(1,5)                  1.76           estimate D2E/DX2                !
 ! R3    R(1,6)                  1.76           estimate D2E/DX2                !
 ! R4    R(1,7)                  1.76           estimate D2E/DX2                !
 ! R5    R(2,3)                  1.32           estimate D2E/DX2                !
 ! R6    R(3,4)                  0.96           estimate D2E/DX2                !
 ! R7    R(4,5)                  1.5283         estimate D2E/DX2                !
 ! A1    A(2,1,5)              105.0949         estimate D2E/DX2                !
 ! A2    A(2,1,6)              112.5592         estimate D2E/DX2                !
 ! A3    A(2,1,7)              112.5587         estimate D2E/DX2                !
 ! A4    A(5,1,6)              107.1051         estimate D2E/DX2                !
 ! A5    A(5,1,7)              107.0707         estimate D2E/DX2                !
 ! A6    A(6,1,7)              111.9023         estimate D2E/DX2                !
 ! A7    A(1,2,3)              109.4712         estimate D2E/DX2                !
 ! A8    A(2,3,4)              109.4712         estimate D2E/DX2                !
 ! A9    A(3,4,5)              135.4764         estimate D2E/DX2                !
 ! A10   A(1,5,4)               80.4862         estimate D2E/DX2                !
 ! D1    D(5,1,2,3)             -0.0231         estimate D2E/DX2                !
 ! D2    D(6,1,2,3)           -116.25           estimate D2E/DX2                !
 ! D3    D(7,1,2,3)            116.1625         estimate D2E/DX2                !
 ! D4    D(2,1,5,4)              0.0283         estimate D2E/DX2                !
 ! D5    D(6,1,5,4)            119.945          estimate D2E/DX2                !
 ! D6    D(7,1,5,4)           -119.8711         estimate D2E/DX2                !
 ! D7    D(1,2,3,4)              0.0            estimate D2E/DX2                !
 ! D8    D(2,3,4,5)              0.0366         estimate D2E/DX2                !
 ! D9    D(3,4,5,1)             -0.0444         estimate D2E/DX2                !
 --------------------------------------------------------------------------------
 Trust Radius=3.00D-01 FncErr=1.00D-07 GrdErr=1.00D-06
 Number of steps in this run=     36 maximum allowed number of steps=    100.
 GradGradGradGradGradGradGradGradGradGradGradGradGradGradGradGradGradGrad

 Leave Link  103 at Mon Dec 13 16:56:34 2021, MaxMem= 1342177280 cpu:       0.1
 (Enter /LUSTRE/yoltla/nc/app/gaussian/09/g09/l202.exe)
                          Input orientation:                          
 ---------------------------------------------------------------------
 Center     Atomic      Atomic             Coordinates (Angstroms)
 Number     Number       Type             X           Y           Z
 ---------------------------------------------------------------------
      1          6           0        1.391437    0.992023    0.000076
      2          8           0        0.024045    0.918584    0.000029
      3          8           0       -0.348579   -0.347730   -0.000781
      4          1           0        0.429374   -0.910215   -0.001141
      5         17           0        1.940247   -0.680223   -0.000310
      6         17           0        2.027114    1.745133    1.458274
      7         17           0        2.027220    1.744777   -1.458259
 ---------------------------------------------------------------------
                    Distance matrix (angstroms):
                    1          2          3          4          5
     1  C    0.000000
     2  O    1.369363   0.000000
     3  O    2.196040   1.320000   0.000000
     4  H    2.131684   1.873179   0.960000   0.000000
     5  Cl   1.760000   2.495599   2.312850   1.528278   0.000000
     6  Cl   1.760000   2.611885   3.486091   3.425425   2.831495
     7  Cl   1.760000   2.611878   3.485290   3.424221   2.830867
                    6          7
     6  Cl   0.000000
     7  Cl   2.916533   0.000000
 Symmetry turned off by external request.
 Stoichiometry    CHCl3O2
 Framework group  C1[X(CHCl3O2)]
 Deg. of freedom    15
 Full point group                 C1      NOp   1
 Rotational constants (GHZ):      2.1183914      1.8005630      1.4883272
 Leave Link  202 at Mon Dec 13 16:56:34 2021, MaxMem= 1342177280 cpu:       0.9
 (Enter /LUSTRE/yoltla/nc/app/gaussian/09/g09/l301.exe)
 Standard basis: 6-311+G(d,p) (5D, 7F)
 Ernie: Thresh=  0.10000D-02 Tol=  0.10000D-05 Strict=F.
 Integral buffers will be    131072 words long.
 Raffenetti 2 integral format.
 Two-electron integral symmetry is turned off.
   162 basis functions,   275 primitive gaussians,   168 cartesian basis functions
    37 alpha electrons       37 beta electrons
       nuclear repulsion energy       483.9033369289 Hartrees.
 IExCor= 3428 DFT=T Ex+Corr=M052X ExCW=0 ScaHFX=  0.560000
 ScaDFX=  0.440000  0.440000  1.000000  1.000000 ScalE2=  1.000000  1.000000
 IRadAn=      0 IRanWt=     -1 IRanGd=            0 ICorTp=0
 NAtoms=    7 NActive=    7 NUniq=    7 SFac= 1.00D+00 NAtFMM=   50 NAOKFM=F Big=F
 ------------------------------------------------------------------------------
 Polarizable Continuum Model (PCM)
 =================================
 Model                : PCM.
 Atomic radii         : SMD-Coulomb.
 Polarization charges : Total charges.
 Charge compensation  : None.
 Solution method      : Matrix inversion.
 Cavity type          : VdW (van der Waals Surface) (Alpha=1.000).
 Cavity algorithm     : GePol (No added spheres)
                        Default sphere list used, NSphG=    7.
                        Lebedev-Laikov grids with approx.  5.0 points / Ang**2.
                        Smoothing algorithm: Karplus/York (Gamma=1.0000).
                        Polarization charges: spherical gaussians, with
                                              point-specific exponents (IZeta= 3).
                        Self-potential: point-specific (ISelfS= 7).
                        Self-field    : sphere-specific E.n sum rule (ISelfD= 2).
 1st derivatives      : Analytical E(r).r(x)/FMM algorithm (CHGder, D1EAlg=3).
                        Cavity 1st derivative terms included.
 Solvent              : Water, Eps=  78.355300 Eps(inf)=   1.777849
 ------------------------------------------------------------------------------
 Spheres list:
 ISph  on   Nord    Re0     Alpha      Xe            Ye            Ze
    1   C      1    1.850   1.000      1.391437      0.992023      0.000076
    2   O      2    1.520   1.000      0.024045      0.918584      0.000029
    3   O      3    1.520   1.000     -0.348579     -0.347730     -0.000781
    4   H      4    1.200   1.000      0.429374     -0.910215     -0.001141
    5  Cl      5    2.380   1.000      1.940247     -0.680223     -0.000310
    6  Cl      6    2.380   1.000      2.027114      1.745133      1.458274
    7  Cl      7    2.380   1.000      2.027220      1.744777     -1.458259
 ------------------------------------------------------------------------------
 GePol: Number of generator spheres                  =       7
 GePol: Total number of spheres                      =       7
 GePol: Number of exposed spheres                    =       7 (100.00%)
 GePol: Number of points                             =     989
 GePol: Average weight of points                     =       0.15
 GePol: Minimum weight of points                     =   0.13D-06
 GePol: Maximum weight of points                     =    0.21991
 GePol: Number of points with low weight             =      20
 GePol: Fraction of low-weight points (<1% of avg)   =       2.02%
 GePol: Cavity surface area                          =    152.782 Ang**2
 GePol: Cavity volume                                =    150.679 Ang**3
 ------------------------------------------------------------------------------
 Atomic radii for non-electrostatic terms: SMD-CDS.
 ------------------------------------------------------------------------------
 PCM non-electrostatic energy =         0.0023737022 Hartrees.
 Nuclear repulsion after PCM non-electrostatic terms =      483.9057106312 Hartrees.
 Leave Link  301 at Mon Dec 13 16:56:34 2021, MaxMem= 1342177280 cpu:       2.2
 (Enter /LUSTRE/yoltla/nc/app/gaussian/09/g09/l302.exe)
 NPDir=0 NMtPBC=     1 NCelOv=     1 NCel=       1 NClECP=     1 NCelD=      1
         NCelK=      1 NCelE2=     1 NClLst=     1 CellRange=     0.0.
 One-electron integrals computed using PRISM.
 NBasis=   162 RedAO= T  NBF=   162
 NBsUse=   162 1.00D-06 NBFU=   162
 Precomputing XC quadrature grid using
 IXCGrd= 2 IRadAn=           0 IRanWt=          -1 IRanGd=           0 AccXCQ= 0.00D+00.
 NRdTot=     443 NPtTot=       56442 NUsed=       59647 NTot=       59679
 NSgBfM=   168   168   168   168   168 NAtAll=     7     7.
 Leave Link  302 at Mon Dec 13 16:56:35 2021, MaxMem= 1342177280 cpu:       5.5
 (Enter /LUSTRE/yoltla/nc/app/gaussian/09/g09/l303.exe)
 DipDrv:  MaxL=1.
 Leave Link  303 at Mon Dec 13 16:56:35 2021, MaxMem= 1342177280 cpu:       1.7
 (Enter /LUSTRE/yoltla/nc/app/gaussian/09/g09/l401.exe)
 Harris functional with IExCor= 1009 diagonalized for initial guess.
 ExpMin= 4.38D-02 ExpMax= 1.06D+05 ExpMxC= 3.62D+03 IAcc=2 IRadAn=         0 AccDes= 0.00D+00
 HarFok:  IExCor= 1009 AccDes= 0.00D+00 IRadAn=         0 IDoV= 1
 ScaDFX=  1.000000  1.000000  1.000000  1.000000
 FoFCou: FMM=F IPFlag=           0 FMFlag=      100000 FMFlg1=           0
         NFxFlg=           0 DoJE=T BraDBF=F KetDBF=T FulRan=T
         Omega=  0.000000  0.000000  1.000000  0.000000  0.000000 ICntrl=     500 IOpCl=  0
         NMat0=    1 NMatS0=    1 NMatT0=    0 NMatD0=    1 NMtDS0=    0 NMtDT0=    0
         I1Cent=           4 NGrid=           0.
 Symmetry not used in FoFCou.
 Harris En= -1568.64567207748    
 Leave Link  401 at Mon Dec 13 16:56:35 2021, MaxMem= 1342177280 cpu:       5.7
 (Enter /LUSTRE/yoltla/nc/app/gaussian/09/g09/l502.exe)
 Closed shell SCF:
 Requested convergence on RMS density matrix=1.00D-08 within 128 cycles.
 Requested convergence on MAX density matrix=1.00D-06.
 Requested convergence on             energy=1.00D-06.
 No special actions if energy rises.
 Using DIIS extrapolation, IDIIS=  1040.
 Two-electron integral symmetry not used.
        59571 words used for storage of precomputed grid.
 Keep R1 ints in memory in canonical form, NReq=105170035.
 IEnd=      166771 IEndB=      166771 NGot=  1342177280 MDV=  1241285208
 LenX=  1241285208 LenY=  1241256543
 Symmetry not used in FoFDir.
 MinBra= 0 MaxBra= 2 Meth= 1.
 IRaf=       0 NMat=   1 IRICut=       1 DoRegI=T DoRafI=F ISym2E= 0 JSym2E=0.

 Cycle   1  Pass 1  IDiag  1:
 E= -1569.50601401535    
 DIIS: error= 2.49D-02 at cycle   1 NSaved=   1.
 NSaved= 1 IEnMin= 1 EnMin= -1569.50601401535     IErMin= 1 ErrMin= 2.49D-02
 ErrMax= 2.49D-02 EMaxC= 1.00D-01 BMatC= 2.50D-01 BMatP= 2.50D-01
 IDIUse=3 WtCom= 7.51D-01 WtEn= 2.49D-01
 Coeff-Com:  0.100D+01
 Coeff-En:   0.100D+01
 Coeff:      0.100D+01
 Gap=     0.386 Goal=   None    Shift=    0.000
 GapD=    0.386 DampG=1.000 DampE=0.500 DampFc=0.5000 IDamp=-1.
 Damping current iteration by 5.00D-01
 RMSDP=4.63D-03 MaxDP=1.06D-01              OVMax= 1.10D-01

 Cycle   2  Pass 1  IDiag  1:
 E= -1569.55038713332     Delta-E=       -0.044373117969 Rises=F Damp=T
 DIIS: error= 9.75D-03 at cycle   2 NSaved=   2.
 NSaved= 2 IEnMin= 2 EnMin= -1569.55038713332     IErMin= 2 ErrMin= 9.75D-03
 ErrMax= 9.75D-03 EMaxC= 1.00D-01 BMatC= 3.40D-02 BMatP= 2.50D-01
 IDIUse=3 WtCom= 9.03D-01 WtEn= 9.75D-02
 Coeff-Com: -0.155D+00 0.115D+01
 Coeff-En:   0.651D-01 0.935D+00
 Coeff:     -0.133D+00 0.113D+01
 Gap=     0.395 Goal=   None    Shift=    0.000
 RMSDP=1.58D-03 MaxDP=3.55D-02 DE=-4.44D-02 OVMax= 7.75D-02

 Cycle   3  Pass 1  IDiag  1:
 E= -1569.59608648740     Delta-E=       -0.045699354074 Rises=F Damp=F
 DIIS: error= 9.04D-03 at cycle   3 NSaved=   3.
 NSaved= 3 IEnMin= 3 EnMin= -1569.59608648740     IErMin= 3 ErrMin= 9.04D-03
 ErrMax= 9.04D-03 EMaxC= 1.00D-01 BMatC= 1.50D-02 BMatP= 3.40D-02
 IDIUse=3 WtCom= 9.10D-01 WtEn= 9.04D-02
 Coeff-Com: -0.184D+00 0.522D+00 0.663D+00
 Coeff-En:   0.000D+00 0.000D+00 0.100D+01
 Coeff:     -0.168D+00 0.475D+00 0.693D+00
 Gap=     0.350 Goal=   None    Shift=    0.000
 RMSDP=8.29D-04 MaxDP=2.54D-02 DE=-4.57D-02 OVMax= 2.41D-02

 Cycle   4  Pass 1  IDiag  1:
 E= -1569.60741698813     Delta-E=       -0.011330500732 Rises=F Damp=F
 DIIS: error= 2.27D-03 at cycle   4 NSaved=   4.
 NSaved= 4 IEnMin= 4 EnMin= -1569.60741698813     IErMin= 4 ErrMin= 2.27D-03
 ErrMax= 2.27D-03 EMaxC= 1.00D-01 BMatC= 6.37D-04 BMatP= 1.50D-02
 IDIUse=3 WtCom= 9.77D-01 WtEn= 2.27D-02
 Coeff-Com: -0.549D-01 0.134D+00 0.276D+00 0.644D+00
 Coeff-En:   0.000D+00 0.000D+00 0.000D+00 0.100D+01
 Coeff:     -0.537D-01 0.131D+00 0.270D+00 0.653D+00
 Gap=     0.348 Goal=   None    Shift=    0.000
 RMSDP=2.09D-04 MaxDP=6.74D-03 DE=-1.13D-02 OVMax= 5.54D-03

 Cycle   5  Pass 1  IDiag  1:
 E= -1569.60793014139     Delta-E=       -0.000513153265 Rises=F Damp=F
 DIIS: error= 5.00D-04 at cycle   5 NSaved=   5.
 NSaved= 5 IEnMin= 5 EnMin= -1569.60793014139     IErMin= 5 ErrMin= 5.00D-04
 ErrMax= 5.00D-04 EMaxC= 1.00D-01 BMatC= 4.43D-05 BMatP= 6.37D-04
 IDIUse=3 WtCom= 9.95D-01 WtEn= 5.00D-03
 Coeff-Com: -0.504D-02 0.619D-02 0.454D-01 0.280D+00 0.673D+00
 Coeff-En:   0.000D+00 0.000D+00 0.000D+00 0.000D+00 0.100D+01
 Coeff:     -0.501D-02 0.616D-02 0.452D-01 0.279D+00 0.675D+00
 Gap=     0.349 Goal=   None    Shift=    0.000
 RMSDP=5.00D-05 MaxDP=8.55D-04 DE=-5.13D-04 OVMax= 1.67D-03

 Cycle   6  Pass 1  IDiag  1:
 E= -1569.60796796981     Delta-E=       -0.000037828415 Rises=F Damp=F
 DIIS: error= 6.94D-05 at cycle   6 NSaved=   6.
 NSaved= 6 IEnMin= 6 EnMin= -1569.60796796981     IErMin= 6 ErrMin= 6.94D-05
 ErrMax= 6.94D-05 EMaxC= 1.00D-01 BMatC= 1.24D-06 BMatP= 4.43D-05
 IDIUse=1 WtCom= 1.00D+00 WtEn= 0.00D+00
 Coeff-Com:  0.374D-02-0.978D-02-0.147D-01 0.534D-02 0.138D+00 0.877D+00
 Coeff:      0.374D-02-0.978D-02-0.147D-01 0.534D-02 0.138D+00 0.877D+00
 Gap=     0.349 Goal=   None    Shift=    0.000
 RMSDP=1.74D-05 MaxDP=6.82D-04 DE=-3.78D-05 OVMax= 4.14D-04

 Cycle   7  Pass 1  IDiag  1:
 E= -1569.60796935022     Delta-E=       -0.000001380413 Rises=F Damp=F
 DIIS: error= 2.84D-05 at cycle   7 NSaved=   7.
 NSaved= 7 IEnMin= 7 EnMin= -1569.60796935022     IErMin= 7 ErrMin= 2.84D-05
 ErrMax= 2.84D-05 EMaxC= 1.00D-01 BMatC= 1.57D-07 BMatP= 1.24D-06
 IDIUse=1 WtCom= 1.00D+00 WtEn= 0.00D+00
 Coeff-Com:  0.122D-02-0.298D-02-0.704D-02-0.179D-01 0.194D-02 0.289D+00
 Coeff-Com:  0.736D+00
 Coeff:      0.122D-02-0.298D-02-0.704D-02-0.179D-01 0.194D-02 0.289D+00
 Coeff:      0.736D+00
 Gap=     0.349 Goal=   None    Shift=    0.000
 RMSDP=5.04D-06 MaxDP=1.72D-04 DE=-1.38D-06 OVMax= 1.57D-04

 Cycle   8  Pass 1  IDiag  1:
 E= -1569.60796948662     Delta-E=       -0.000000136394 Rises=F Damp=F
 DIIS: error= 1.33D-05 at cycle   8 NSaved=   8.
 NSaved= 8 IEnMin= 8 EnMin= -1569.60796948662     IErMin= 8 ErrMin= 1.33D-05
 ErrMax= 1.33D-05 EMaxC= 1.00D-01 BMatC= 3.31D-08 BMatP= 1.57D-07
 IDIUse=1 WtCom= 1.00D+00 WtEn= 0.00D+00
 Coeff-Com:  0.123D-03-0.270D-03-0.172D-02-0.102D-01-0.149D-01 0.316D-01
 Coeff-Com:  0.339D+00 0.656D+00
 Coeff:      0.123D-03-0.270D-03-0.172D-02-0.102D-01-0.149D-01 0.316D-01
 Coeff:      0.339D+00 0.656D+00
 Gap=     0.349 Goal=   None    Shift=    0.000
 RMSDP=1.68D-06 MaxDP=3.98D-05 DE=-1.36D-07 OVMax= 5.06D-05

 Cycle   9  Pass 1  IDiag  1:
 E= -1569.60796951249     Delta-E=       -0.000000025876 Rises=F Damp=F
 DIIS: error= 3.01D-06 at cycle   9 NSaved=   9.
 NSaved= 9 IEnMin= 9 EnMin= -1569.60796951249     IErMin= 9 ErrMin= 3.01D-06
 ErrMax= 3.01D-06 EMaxC= 1.00D-01 BMatC= 1.73D-09 BMatP= 3.31D-08
 IDIUse=1 WtCom= 1.00D+00 WtEn= 0.00D+00
 Coeff-Com: -0.835D-04 0.219D-03 0.179D-03-0.142D-02-0.366D-02-0.203D-01
 Coeff-Com:  0.181D-01 0.202D+00 0.805D+00
 Coeff:     -0.835D-04 0.219D-03 0.179D-03-0.142D-02-0.366D-02-0.203D-01
 Coeff:      0.181D-01 0.202D+00 0.805D+00
 Gap=     0.349 Goal=   None    Shift=    0.000
 RMSDP=5.91D-07 MaxDP=1.39D-05 DE=-2.59D-08 OVMax= 1.86D-05

 Cycle  10  Pass 1  IDiag  1:
 E= -1569.60796951450     Delta-E=       -0.000000002003 Rises=F Damp=F
 DIIS: error= 6.84D-07 at cycle  10 NSaved=  10.
 NSaved=10 IEnMin=10 EnMin= -1569.60796951450     IErMin=10 ErrMin= 6.84D-07
 ErrMax= 6.84D-07 EMaxC= 1.00D-01 BMatC= 5.15D-11 BMatP= 1.73D-09
 IDIUse=1 WtCom= 1.00D+00 WtEn= 0.00D+00
 Coeff-Com: -0.938D-05 0.250D-04 0.942D-04 0.389D-03 0.579D-03-0.457D-02
 Coeff-Com: -0.176D-01-0.157D-01 0.868D-01 0.950D+00
 Coeff:     -0.938D-05 0.250D-04 0.942D-04 0.389D-03 0.579D-03-0.457D-02
 Coeff:     -0.176D-01-0.157D-01 0.868D-01 0.950D+00
 Gap=     0.349 Goal=   None    Shift=    0.000
 RMSDP=1.89D-07 MaxDP=4.26D-06 DE=-2.00D-09 OVMax= 6.47D-06

 Cycle  11  Pass 1  IDiag  1:
 E= -1569.60796951460     Delta-E=       -0.000000000100 Rises=F Damp=F
 DIIS: error= 1.51D-07 at cycle  11 NSaved=  11.
 NSaved=11 IEnMin=11 EnMin= -1569.60796951460     IErMin=11 ErrMin= 1.51D-07
 ErrMax= 1.51D-07 EMaxC= 1.00D-01 BMatC= 8.50D-12 BMatP= 5.15D-11
 IDIUse=1 WtCom= 1.00D+00 WtEn= 0.00D+00
 Coeff-Com:  0.166D-05-0.527D-05 0.286D-04 0.264D-03 0.494D-03-0.375D-03
 Coeff-Com: -0.774D-02-0.201D-01-0.254D-01 0.329D+00 0.724D+00
 Coeff:      0.166D-05-0.527D-05 0.286D-04 0.264D-03 0.494D-03-0.375D-03
 Coeff:     -0.774D-02-0.201D-01-0.254D-01 0.329D+00 0.724D+00
 Gap=     0.349 Goal=   None    Shift=    0.000
 RMSDP=4.54D-08 MaxDP=1.04D-06 DE=-1.00D-10 OVMax= 1.24D-06

 Cycle  12  Pass 1  IDiag  1:
 E= -1569.60796951460     Delta-E=       -0.000000000006 Rises=F Damp=F
 DIIS: error= 2.79D-08 at cycle  12 NSaved=  12.
 NSaved=12 IEnMin=12 EnMin= -1569.60796951460     IErMin=12 ErrMin= 2.79D-08
 ErrMax= 2.79D-08 EMaxC= 1.00D-01 BMatC= 1.42D-13 BMatP= 8.50D-12
 IDIUse=1 WtCom= 1.00D+00 WtEn= 0.00D+00
 Coeff-Com:  0.523D-06-0.127D-05-0.397D-05-0.179D-04-0.243D-04 0.244D-03
 Coeff-Com:  0.877D-03 0.801D-03-0.332D-02-0.488D-01-0.564D-02 0.106D+01
 Coeff:      0.523D-06-0.127D-05-0.397D-05-0.179D-04-0.243D-04 0.244D-03
 Coeff:      0.877D-03 0.801D-03-0.332D-02-0.488D-01-0.564D-02 0.106D+01
 Gap=     0.349 Goal=   None    Shift=    0.000
 RMSDP=1.39D-08 MaxDP=3.10D-07 DE=-5.91D-12 OVMax= 2.76D-07

 Cycle  13  Pass 1  IDiag  1:
 E= -1569.60796951460     Delta-E=       -0.000000000003 Rises=F Damp=F
 DIIS: error= 8.90D-09 at cycle  13 NSaved=  13.
 NSaved=13 IEnMin=13 EnMin= -1569.60796951460     IErMin=13 ErrMin= 8.90D-09
 ErrMax= 8.90D-09 EMaxC= 1.00D-01 BMatC= 1.50D-14 BMatP= 1.42D-13
 IDIUse=1 WtCom= 1.00D+00 WtEn= 0.00D+00
 Coeff-Com: -0.670D-07 0.223D-06-0.225D-05-0.178D-04-0.310D-04 0.569D-04
 Coeff-Com:  0.579D-03 0.125D-02 0.774D-03-0.282D-01-0.432D-01 0.212D+00
 Coeff-Com:  0.857D+00
 Coeff:     -0.670D-07 0.223D-06-0.225D-05-0.178D-04-0.310D-04 0.569D-04
 Coeff:      0.579D-03 0.125D-02 0.774D-03-0.282D-01-0.432D-01 0.212D+00
 Coeff:      0.857D+00
 Gap=     0.349 Goal=   None    Shift=    0.000
 RMSDP=3.79D-09 MaxDP=1.23D-07 DE=-3.18D-12 OVMax= 6.38D-08

 Error on total polarization charges =  0.01403
 SCF Done:  E(RM052X) =  -1569.60796951     A.U. after   13 cycles
             Convg  =    0.3795D-08             -V/T =  2.0018
 KE= 1.566728824049D+03 PE=-4.693719230908D+03 EE= 1.073476726714D+03
 SMD-CDS (non-electrostatic) energy       (kcal/mol) =       1.49
 (included in total energy above)
 Leave Link  502 at Mon Dec 13 16:56:43 2021, MaxMem= 1342177280 cpu:     147.0
 (Enter /LUSTRE/yoltla/nc/app/gaussian/09/g09/l601.exe)
 Copying SCF densities to generalized density rwf, IOpCl= 0 IROHF=0.

 **********************************************************************

            Population analysis using the SCF density.

 **********************************************************************

 Alpha  occ. eigenvalues -- -102.83265-102.81982-102.81978 -19.79561 -19.73098
 Alpha  occ. eigenvalues --  -10.83171  -9.87847  -9.86130  -9.86125  -7.60570
 Alpha  occ. eigenvalues --   -7.60003  -7.59869  -7.58940  -7.58936  -7.58220
 Alpha  occ. eigenvalues --   -7.58217  -7.58208  -7.58204  -1.39664  -1.12076
 Alpha  occ. eigenvalues --   -1.06496  -0.97549  -0.97377  -0.78821  -0.70206
 Alpha  occ. eigenvalues --   -0.64393  -0.64216  -0.54726  -0.53506  -0.52217
 Alpha  occ. eigenvalues --   -0.46955  -0.45698  -0.43621  -0.41244  -0.40315
 Alpha  occ. eigenvalues --   -0.40008  -0.35938
 Alpha virt. eigenvalues --   -0.01035   0.00364   0.04629   0.04939   0.08321
 Alpha virt. eigenvalues --    0.08322   0.09391   0.10154   0.12270   0.12304
 Alpha virt. eigenvalues --    0.12787   0.13746   0.13870   0.16082   0.16582
 Alpha virt. eigenvalues --    0.16707   0.17057   0.17472   0.21112   0.22052
 Alpha virt. eigenvalues --    0.22935   0.24936   0.26287   0.30987   0.30995
 Alpha virt. eigenvalues --    0.33700   0.33845   0.34308   0.38014   0.39215
 Alpha virt. eigenvalues --    0.41211   0.43083   0.44276   0.47668   0.47986
 Alpha virt. eigenvalues --    0.49158   0.50366   0.50690   0.51785   0.52034
 Alpha virt. eigenvalues --    0.56171   0.57555   0.60752   0.74464   0.75520
 Alpha virt. eigenvalues --    0.83870   0.87443   0.88724   0.89240   0.90871
 Alpha virt. eigenvalues --    0.91149   0.92367   0.93514   0.94633   0.97021
 Alpha virt. eigenvalues --    1.01104   1.06138   1.06767   1.08632   1.10423
 Alpha virt. eigenvalues --    1.11107   1.17240   1.19035   1.22335   1.24840
 Alpha virt. eigenvalues --    1.26030   1.29637   1.31708   1.43164   1.48247
 Alpha virt. eigenvalues --    1.51289   1.59630   1.68350   1.78210   1.80057
 Alpha virt. eigenvalues --    1.85568   1.88063   2.18889   2.22384   2.23716
 Alpha virt. eigenvalues --    2.25296   2.27690   2.30403   2.40383   2.41507
 Alpha virt. eigenvalues --    2.42843   2.48485   2.55345   2.61095   2.76891
 Alpha virt. eigenvalues --    2.84135   2.92213   2.92446   3.15109   3.19517
 Alpha virt. eigenvalues --    3.24026   3.37859   3.56682   3.78210   3.85384
 Alpha virt. eigenvalues --    3.95907   4.92876   5.01253   5.10957   5.37775
 Alpha virt. eigenvalues --    5.54291   6.17107   9.83982   9.89878   9.93424
 Alpha virt. eigenvalues --   23.53752  25.90763  25.94772  25.95087  25.97042
 Alpha virt. eigenvalues --   26.01595  26.26906  26.38190  26.49799  26.87912
 Alpha virt. eigenvalues --   50.04058  50.09106 216.21304 216.27265 216.32539
          Condensed to atoms (all electrons):
              1          2          3          4          5          6
     1  C    7.004626  -0.325103   0.099585  -0.083355   0.165305   0.067272
     2  O   -0.325103   8.511149  -0.181140   0.054800  -0.041914  -0.149939
     3  O    0.099585  -0.181140   8.270350   0.254070  -0.147562   0.034964
     4  H   -0.083355   0.054800   0.254070   0.416060   0.015044  -0.004406
     5  Cl   0.165305  -0.041914  -0.147562   0.015044  17.014769  -0.121758
     6  Cl   0.067272  -0.149939   0.034964  -0.004406  -0.121758  17.106320
     7  Cl   0.066925  -0.150013   0.035184  -0.004468  -0.121943  -0.176681
              7
     1  C    0.066925
     2  O   -0.150013
     3  O    0.035184
     4  H   -0.004468
     5  Cl  -0.121943
     6  Cl  -0.176681
     7  Cl  17.106988
 Mulliken atomic charges:
              1
     1  C   -0.995256
     2  O    0.282159
     3  O   -0.365451
     4  H    0.352254
     5  Cl   0.238058
     6  Cl   0.244227
     7  Cl   0.244009
 Sum of Mulliken atomic charges =   0.00000
 Mulliken charges with hydrogens summed into heavy atoms:
              1
     1  C   -0.995256
     2  O    0.282159
     3  O   -0.013197
     5  Cl   0.238058
     6  Cl   0.244227
     7  Cl   0.244009
 Sum of Mulliken charges with hydrogens summed into heavy atoms =   0.00000
 Electronic spatial extent (au):  <R**2>=           1600.0942
 Charge=              0.0000 electrons
 Dipole moment (field-independent basis, Debye):
    X=              2.5530    Y=             -1.1432    Z=              0.0004  Tot=              2.7973
 Quadrupole moment (field-independent basis, Debye-Ang):
   XX=            -54.1808   YY=            -52.5954   ZZ=            -53.8066
   XY=             -0.7585   XZ=              0.0002   YZ=              0.0045
 Traceless Quadrupole moment (field-independent basis, Debye-Ang):
   XX=             -0.6532   YY=              0.9322   ZZ=             -0.2790
   XY=             -0.7585   XZ=              0.0002   YZ=              0.0045
 Octapole moment (field-independent basis, Debye-Ang**2):
  XXX=           -242.7069  YYY=           -136.4986  ZZZ=              0.0285  XYY=            -76.2104
  XXY=            -43.5599  XXZ=              0.0124  XZZ=            -75.7981  YZZ=            -38.0006
  YYZ=              0.0113  XYZ=              0.0075
 Hexadecapole moment (field-independent basis, Debye-Ang**3):
 XXXX=          -1030.7997 YYYY=           -612.0020 ZZZZ=           -355.3020 XXXY=           -245.3187
 XXXZ=              0.0302 YYYX=           -246.2335 YYYZ=             -0.0081 ZZZX=              0.0261
 ZZZY=             -0.0254 XXYY=           -263.6494 XXZZ=           -218.7084 YYZZ=           -151.2618
 XXYZ=              0.0025 YYXZ=              0.0188 ZZXY=            -63.5526
 N-N= 4.839057106312D+02 E-N=-4.693719231485D+03  KE= 1.566728824049D+03
 No NMR shielding tensors so no spin-rotation constants.
 Leave Link  601 at Mon Dec 13 16:56:43 2021, MaxMem= 1342177280 cpu:       3.3
 (Enter /LUSTRE/yoltla/nc/app/gaussian/09/g09/l701.exe)
 Compute integral first derivatives.
 ... and contract with generalized density number  0.
 D1PCM: PCM CHGder 1st derivatives, ID1Alg=3 FixD1E=F DoIter=F DoCFld=F I1PDM=0.
 GePol: Maximum number of non-zero 1st derivatives   =     322
 Leave Link  701 at Mon Dec 13 16:56:44 2021, MaxMem= 1342177280 cpu:       9.4
 (Enter /LUSTRE/yoltla/nc/app/gaussian/09/g09/l702.exe)
 L702 exits ... SP integral derivatives will be done elsewhere.
 Leave Link  702 at Mon Dec 13 16:56:44 2021, MaxMem= 1342177280 cpu:       0.4
 (Enter /LUSTRE/yoltla/nc/app/gaussian/09/g09/l703.exe)
 Compute integral first derivatives, UseDBF=F ICtDFT=           0.
 Integral derivatives from FoFDir, PRISM(SPDF).
 Calling FoFJK, ICntrl=      2127 FMM=F ISym2X=0 I1Cent= 0 IOpClX= 0 NMat=1 NMatS=1 NMatT=0.
 FoFCou: FMM=F IPFlag=           0 FMFlag=      100000 FMFlg1=         800
         NFxFlg=           0 DoJE=F BraDBF=F KetDBF=F FulRan=T
         Omega=  0.000000  0.000000  1.000000  0.000000  0.000000 ICntrl=    2127 IOpCl=  0
         NMat0=    1 NMatS0=    1 NMatT0=    0 NMatD0=    1 NMtDS0=    0 NMtDT0=    0
         I1Cent=           0 NGrid=           0.
 Symmetry not used in FoFCou.
 Leave Link  703 at Mon Dec 13 16:56:44 2021, MaxMem= 1342177280 cpu:      16.1
 (Enter /LUSTRE/yoltla/nc/app/gaussian/09/g09/l716.exe)
 Dipole        = 1.00441792D+00-4.49776793D-01 1.60120580D-04
 -------------------------------------------------------------------
 Center     Atomic                   Forces (Hartrees/Bohr)
 Number     Number              X              Y              Z
 -------------------------------------------------------------------
      1        6           0.020375886   -0.004826940   -0.000026256
      2        8           0.021171903    0.059616016    0.000063850
      3        8          -0.134973361   -0.043346831   -0.000059336
      4        1          -0.016319088   -0.016940302   -0.000031829
      5       17           0.115084844   -0.017323175    0.000093825
      6       17          -0.002678320    0.011373096    0.002416397
      7       17          -0.002661865    0.011448136   -0.002456651
 -------------------------------------------------------------------
 Cartesian Forces:  Max     0.134973361 RMS     0.043051469
 Leave Link  716 at Mon Dec 13 16:56:45 2021, MaxMem= 1342177280 cpu:       0.7
 (Enter /LUSTRE/yoltla/nc/app/gaussian/09/g09/l103.exe)

 GradGradGradGradGradGradGradGradGradGradGradGradGradGradGradGradGradGrad
 Berny optimization.
 Internal  Forces:  Max     0.100623629 RMS     0.032567618
 Search for a local minimum.
 Step number   1 out of a maximum of   36
 All quantities printed in internal units (Hartrees-Bohrs-Radians)
 RMS Force = .32568D-01 SwitMx=.10000D-02 MixMth= 1
 Mixed Optimization -- RFO/linear search
 Second derivative matrix not updated -- first step.
 ITU=  0
     Eigenvalues ---    0.00838   0.01822   0.11845   0.14563   0.16484
     Eigenvalues ---    0.17628   0.17856   0.20588   0.23218   0.28859
     Eigenvalues ---    0.29539   0.29539   0.48319   0.53419   0.59353
 RFO step:  Lambda=-8.18330567D-02 EMin= 8.37949845D-03
 Linear search not attempted -- first point.
 Maximum step size (   0.300) exceeded in Quadratic search.
    -- Step size scaled by   0.572
 Iteration  1 RMS(Cart)=  0.05048205 RMS(Int)=  0.00753532
 Iteration  2 RMS(Cart)=  0.00584100 RMS(Int)=  0.00050180
 Iteration  3 RMS(Cart)=  0.00001543 RMS(Int)=  0.00050161
 Iteration  4 RMS(Cart)=  0.00000000 RMS(Int)=  0.00050161
 Variable       Old X    -DE/DX   Delta X   Delta X   Delta X     New X
                                 (Linear)    (Quad)   (Total)
    R1        2.58772   0.02905   0.00000   0.02851   0.02841   2.61613
    R2        3.32592   0.02627   0.00000   0.03220   0.03193   3.35785
    R3        3.32592   0.00591   0.00000   0.00896   0.00896   3.33488
    R4        3.32592   0.00597   0.00000   0.00907   0.00907   3.33498
    R5        2.49444   0.06652   0.00000   0.05856   0.05875   2.55319
    R6        1.81414   0.07504   0.00000   0.07017   0.07041   1.88455
    R7        2.88803   0.10062   0.00000   0.23899   0.23907   3.12710
    A1        1.83425   0.02043   0.00000   0.03798   0.03742   1.87167
    A2        1.96453  -0.01403   0.00000  -0.02839  -0.02917   1.93536
    A3        1.96452  -0.01402   0.00000  -0.02834  -0.02913   1.93539
    A4        1.86934   0.00927   0.00000   0.02523   0.02535   1.89469
    A5        1.86874   0.00938   0.00000   0.02551   0.02563   1.89437
    A6        1.95306  -0.00641   0.00000  -0.02138  -0.02259   1.93048
    A7        1.91063   0.02725   0.00000   0.06537   0.06546   1.97610
    A8        1.91063  -0.05546   0.00000  -0.09822  -0.09761   1.81302
    A9        2.36451   0.01779   0.00000   0.04079   0.04114   2.40565
   A10        1.40475  -0.01001   0.00000  -0.04592  -0.04641   1.35834
    D1       -0.00040  -0.00004   0.00000  -0.00013  -0.00013  -0.00053
    D2       -2.02895  -0.01621   0.00000  -0.03857  -0.03745  -2.06639
    D3        2.02742   0.01626   0.00000   0.03867   0.03754   2.06496
    D4        0.00049   0.00002   0.00000   0.00006   0.00005   0.00055
    D5        2.09344  -0.00122   0.00000  -0.00102  -0.00085   2.09259
    D6       -2.09215   0.00122   0.00000   0.00098   0.00079  -2.09135
    D7        0.00000   0.00003   0.00000   0.00010   0.00010   0.00010
    D8        0.00064  -0.00001   0.00000  -0.00004  -0.00004   0.00060
    D9       -0.00077  -0.00001   0.00000  -0.00004  -0.00004  -0.00081
         Item               Value     Threshold  Converged?
 Maximum Force            0.100624     0.000450     NO 
 RMS     Force            0.032568     0.000300     NO 
 Maximum Displacement     0.165073     0.001800     NO 
 RMS     Displacement     0.055098     0.001200     NO 
 Predicted change in Energy=-3.720460D-02
 GradGradGradGradGradGradGradGradGradGradGradGradGradGradGradGradGradGrad

 Leave Link  103 at Mon Dec 13 16:56:46 2021, MaxMem= 1342177280 cpu:      21.0
 (Enter /LUSTRE/yoltla/nc/app/gaussian/09/g09/l202.exe)
                          Input orientation:                          
 ---------------------------------------------------------------------
 Center     Atomic      Atomic             Coordinates (Angstroms)
 Number     Number       Type             X           Y           Z
 ---------------------------------------------------------------------
      1          6           0        1.427391    0.969436    0.000028
      2          8           0        0.044216    0.911332    0.000010
      3          8           0       -0.435932   -0.351564   -0.000816
      4          1           0        0.384007   -0.919215   -0.001107
      5         17           0        2.024747   -0.704040   -0.000181
      6         17           0        2.023157    1.778274    1.450944
      7         17           0        2.023272    1.778126   -1.450991
 ---------------------------------------------------------------------
                    Distance matrix (angstroms):
                    1          2          3          4          5
     1  C    0.000000
     2  O    1.384395   0.000000
     3  O    2.284078   1.351092   0.000000
     4  H    2.157696   1.861816   0.997259   0.000000
     5  Cl   1.776895   2.555764   2.485796   1.654790   0.000000
     6  Cl   1.764742   2.602500   3.562434   3.474437   2.875352
     7  Cl   1.764798   2.602576   3.561779   3.473471   2.875065
                    6          7
     6  Cl   0.000000
     7  Cl   2.901935   0.000000
 Symmetry turned off by external request.
 Stoichiometry    CHCl3O2
 Framework group  C1[X(CHCl3O2)]
 Deg. of freedom    15
 Full point group                 C1      NOp   1
 Rotational constants (GHZ):      2.0578850      1.7149930      1.4709138
 Leave Link  202 at Mon Dec 13 16:56:46 2021, MaxMem= 1342177280 cpu:       0.9
 (Enter /LUSTRE/yoltla/nc/app/gaussian/09/g09/l301.exe)
 Standard basis: 6-311+G(d,p) (5D, 7F)
 Ernie: Thresh=  0.10000D-02 Tol=  0.10000D-05 Strict=F.
 Integral buffers will be    131072 words long.
 Raffenetti 2 integral format.
 Two-electron integral symmetry is turned off.
   162 basis functions,   275 primitive gaussians,   168 cartesian basis functions
    37 alpha electrons       37 beta electrons
       nuclear repulsion energy       476.5927687136 Hartrees.
 IExCor= 3428 DFT=T Ex+Corr=M052X ExCW=0 ScaHFX=  0.560000
 ScaDFX=  0.440000  0.440000  1.000000  1.000000 ScalE2=  1.000000  1.000000
 IRadAn=      0 IRanWt=     -1 IRanGd=            0 ICorTp=0
 NAtoms=    7 NActive=    7 NUniq=    7 SFac= 1.00D+00 NAtFMM=   50 NAOKFM=F Big=F
 ------------------------------------------------------------------------------
 Polarizable Continuum Model (PCM)
 =================================
 Model                : PCM.
 Atomic radii         : SMD-Coulomb.
 Polarization charges : Total charges.
 Charge compensation  : None.
 Solution method      : Matrix inversion.
 Cavity type          : VdW (van der Waals Surface) (Alpha=1.000).
 Cavity algorithm     : GePol (No added spheres)
                        Default sphere list used, NSphG=    7.
                        Lebedev-Laikov grids with approx.  5.0 points / Ang**2.
                        Smoothing algorithm: Karplus/York (Gamma=1.0000).
                        Polarization charges: spherical gaussians, with
                                              point-specific exponents (IZeta= 3).
                        Self-potential: point-specific (ISelfS= 7).
                        Self-field    : sphere-specific E.n sum rule (ISelfD= 2).
 1st derivatives      : Analytical E(r).r(x)/FMM algorithm (CHGder, D1EAlg=3).
                        Cavity 1st derivative terms included.
 Solvent              : Water, Eps=  78.355300 Eps(inf)=   1.777849
 ------------------------------------------------------------------------------
 Spheres list:
 ISph  on   Nord    Re0     Alpha      Xe            Ye            Ze
    1   C      1    1.850   1.000      1.427391      0.969436      0.000028
    2   O      2    1.520   1.000      0.044216      0.911332      0.000010
    3   O      3    1.520   1.000     -0.435932     -0.351564     -0.000816
    4   H      4    1.200   1.000      0.384007     -0.919215     -0.001107
    5  Cl      5    2.380   1.000      2.024747     -0.704040     -0.000181
    6  Cl      6    2.380   1.000      2.023157      1.778274      1.450944
    7  Cl      7    2.380   1.000      2.023272      1.778126     -1.450991
 ------------------------------------------------------------------------------
 GePol: Number of generator spheres                  =       7
 GePol: Total number of spheres                      =       7
 GePol: Number of exposed spheres                    =       7 (100.00%)
 GePol: Number of points                             =    1008
 GePol: Average weight of points                     =       0.15
 GePol: Minimum weight of points                     =   0.10D-04
 GePol: Maximum weight of points                     =    0.21991
 GePol: Number of points with low weight             =      22
 GePol: Fraction of low-weight points (<1% of avg)   =       2.18%
 GePol: Cavity surface area                          =    153.971 Ang**2
 GePol: Cavity volume                                =    151.841 Ang**3
 ------------------------------------------------------------------------------
 Atomic radii for non-electrostatic terms: SMD-CDS.
 ------------------------------------------------------------------------------
 PCM non-electrostatic energy =         0.0022862824 Hartrees.
 Nuclear repulsion after PCM non-electrostatic terms =      476.5950549960 Hartrees.
 Leave Link  301 at Mon Dec 13 16:56:46 2021, MaxMem= 1342177280 cpu:       2.2
 (Enter /LUSTRE/yoltla/nc/app/gaussian/09/g09/l302.exe)
 NPDir=0 NMtPBC=     1 NCelOv=     1 NCel=       1 NClECP=     1 NCelD=      1
         NCelK=      1 NCelE2=     1 NClLst=     1 CellRange=     0.0.
 One-electron integrals computed using PRISM.
 NBasis=   162 RedAO= T  NBF=   162
 NBsUse=   162 1.00D-06 NBFU=   162
 Precomputing XC quadrature grid using
 IXCGrd= 2 IRadAn=           0 IRanWt=          -1 IRanGd=           0 AccXCQ= 0.00D+00.
 NRdTot=     443 NPtTot=       56442 NUsed=       59647 NTot=       59679
 NSgBfM=   168   168   168   168   168 NAtAll=     7     7.
 Leave Link  302 at Mon Dec 13 16:56:46 2021, MaxMem= 1342177280 cpu:       5.6
 (Enter /LUSTRE/yoltla/nc/app/gaussian/09/g09/l303.exe)
 DipDrv:  MaxL=1.
 Leave Link  303 at Mon Dec 13 16:56:46 2021, MaxMem= 1342177280 cpu:       2.1
 (Enter /LUSTRE/yoltla/nc/app/gaussian/09/g09/l401.exe)
 Initial guess read from the read-write file.
 B after Tr=     0.000000    0.000000    0.000000
         Rot=    1.000000    0.000000    0.000000    0.000000 Ang=   0.00 deg.
 Guess basis will be translated and rotated to current coordinates.
 Generating alternative initial guess.
 Harris functional with IExCor= 1009 diagonalized for initial guess.
 ExpMin= 4.38D-02 ExpMax= 1.06D+05 ExpMxC= 3.62D+03 IAcc=2 IRadAn=         0 AccDes= 0.00D+00
 HarFok:  IExCor= 1009 AccDes= 0.00D+00 IRadAn=         0 IDoV= 1
 ScaDFX=  1.000000  1.000000  1.000000  1.000000
 FoFCou: FMM=F IPFlag=           0 FMFlag=      100000 FMFlg1=           0
         NFxFlg=           0 DoJE=T BraDBF=F KetDBF=T FulRan=T
         Omega=  0.000000  0.000000  1.000000  0.000000  0.000000 ICntrl=     500 IOpCl=  0
         NMat0=    1 NMatS0=    1 NMatT0=    0 NMatD0=    1 NMtDS0=    0 NMtDT0=    0
         I1Cent=           4 NGrid=           0.
 Symmetry not used in FoFCou.
 Harris En= -1568.67823864840    
 Leave Link  401 at Mon Dec 13 16:56:47 2021, MaxMem= 1342177280 cpu:      13.4
 (Enter /LUSTRE/yoltla/nc/app/gaussian/09/g09/l502.exe)
 Closed shell SCF:
 Requested convergence on RMS density matrix=1.00D-08 within 128 cycles.
 Requested convergence on MAX density matrix=1.00D-06.
 Requested convergence on             energy=1.00D-06.
 No special actions if energy rises.
 Using DIIS extrapolation, IDIIS=  1040.
 Two-electron integral symmetry not used.
        59571 words used for storage of precomputed grid.
 Keep R1 ints in memory in canonical form, NReq=105209407.
 IEnd=      166771 IEndB=      166771 NGot=  1342177280 MDV=  1241285208
 LenX=  1241285208 LenY=  1241256543
 Symmetry not used in FoFDir.
 MinBra= 0 MaxBra= 2 Meth= 1.
 IRaf=       0 NMat=   1 IRICut=       1 DoRegI=T DoRafI=F ISym2E= 0 JSym2E=0.

 Cycle   1  Pass 1  IDiag  1:
 E= -1569.63318208605    
 DIIS: error= 5.46D-03 at cycle   1 NSaved=   1.
 NSaved= 1 IEnMin= 1 EnMin= -1569.63318208605     IErMin= 1 ErrMin= 5.46D-03
 ErrMax= 5.46D-03 EMaxC= 1.00D-01 BMatC= 5.59D-03 BMatP= 5.59D-03
 IDIUse=3 WtCom= 9.45D-01 WtEn= 5.46D-02
 Coeff-Com:  0.100D+01
 Coeff-En:   0.100D+01
 Coeff:      0.100D+01
 Gap=     0.352 Goal=   None    Shift=    0.000
 GapD=    0.352 DampG=1.000 DampE=1.000 DampFc=1.0000 IDamp=-1.
 RMSDP=1.18D-03 MaxDP=2.07D-02              OVMax= 2.56D-02

 Cycle   2  Pass 1  IDiag  1:
 E= -1569.64054635994     Delta-E=       -0.007364273890 Rises=F Damp=F
 DIIS: error= 9.93D-04 at cycle   2 NSaved=   2.
 NSaved= 2 IEnMin= 2 EnMin= -1569.64054635994     IErMin= 2 ErrMin= 9.93D-04
 ErrMax= 9.93D-04 EMaxC= 1.00D-01 BMatC= 3.11D-04 BMatP= 5.59D-03
 IDIUse=3 WtCom= 9.90D-01 WtEn= 9.93D-03
 Coeff-Com: -0.135D-01 0.101D+01
 Coeff-En:   0.000D+00 0.100D+01
 Coeff:     -0.134D-01 0.101D+01
 Gap=     0.348 Goal=   None    Shift=    0.000
 RMSDP=2.39D-04 MaxDP=5.20D-03 DE=-7.36D-03 OVMax= 7.31D-03

 Cycle   3  Pass 1  IDiag  1:
 E= -1569.64086394811     Delta-E=       -0.000317588172 Rises=F Damp=F
 DIIS: error= 1.23D-03 at cycle   3 NSaved=   3.
 NSaved= 3 IEnMin= 3 EnMin= -1569.64086394811     IErMin= 2 ErrMin= 9.93D-04
 ErrMax= 1.23D-03 EMaxC= 1.00D-01 BMatC= 1.87D-04 BMatP= 3.11D-04
 IDIUse=3 WtCom= 9.88D-01 WtEn= 1.23D-02
 Coeff-Com: -0.582D-01 0.446D+00 0.612D+00
 Coeff-En:   0.000D+00 0.000D+00 0.100D+01
 Coeff:     -0.574D-01 0.441D+00 0.617D+00
 Gap=     0.348 Goal=   None    Shift=    0.000
 RMSDP=1.29D-04 MaxDP=3.70D-03 DE=-3.18D-04 OVMax= 3.34D-03

 Cycle   4  Pass 1  IDiag  1:
 E= -1569.64102698091     Delta-E=       -0.000163032793 Rises=F Damp=F
 DIIS: error= 4.02D-04 at cycle   4 NSaved=   4.
 NSaved= 4 IEnMin= 4 EnMin= -1569.64102698091     IErMin= 4 ErrMin= 4.02D-04
 ErrMax= 4.02D-04 EMaxC= 1.00D-01 BMatC= 1.88D-05 BMatP= 1.87D-04
 IDIUse=3 WtCom= 9.96D-01 WtEn= 4.02D-03
 Coeff-Com: -0.182D-01 0.426D-01 0.249D+00 0.726D+00
 Coeff-En:   0.000D+00 0.000D+00 0.000D+00 0.100D+01
 Coeff:     -0.182D-01 0.424D-01 0.248D+00 0.728D+00
 Gap=     0.348 Goal=   None    Shift=    0.000
 RMSDP=4.43D-05 MaxDP=9.84D-04 DE=-1.63D-04 OVMax= 1.27D-03

 Cycle   5  Pass 1  IDiag  1:
 E= -1569.64104697017     Delta-E=       -0.000019989261 Rises=F Damp=F
 DIIS: error= 7.10D-05 at cycle   5 NSaved=   5.
 NSaved= 5 IEnMin= 5 EnMin= -1569.64104697017     IErMin= 5 ErrMin= 7.10D-05
 ErrMax= 7.10D-05 EMaxC= 1.00D-01 BMatC= 1.87D-06 BMatP= 1.88D-05
 IDIUse=1 WtCom= 1.00D+00 WtEn= 0.00D+00
 Coeff-Com:  0.874D-03-0.455D-01 0.958D-02 0.262D+00 0.773D+00
 Coeff:      0.874D-03-0.455D-01 0.958D-02 0.262D+00 0.773D+00
 Gap=     0.348 Goal=   None    Shift=    0.000
 RMSDP=1.42D-05 MaxDP=3.41D-04 DE=-2.00D-05 OVMax= 3.82D-04

 Cycle   6  Pass 1  IDiag  1:
 E= -1569.64104883532     Delta-E=       -0.000001865151 Rises=F Damp=F
 DIIS: error= 3.75D-05 at cycle   6 NSaved=   6.
 NSaved= 6 IEnMin= 6 EnMin= -1569.64104883532     IErMin= 6 ErrMin= 3.75D-05
 ErrMax= 3.75D-05 EMaxC= 1.00D-01 BMatC= 2.61D-07 BMatP= 1.87D-06
 IDIUse=1 WtCom= 1.00D+00 WtEn= 0.00D+00
 Coeff-Com:  0.232D-02-0.266D-01-0.213D-01 0.533D-01 0.345D+00 0.647D+00
 Coeff:      0.232D-02-0.266D-01-0.213D-01 0.533D-01 0.345D+00 0.647D+00
 Gap=     0.348 Goal=   None    Shift=    0.000
 RMSDP=4.88D-06 MaxDP=1.10D-04 DE=-1.87D-06 OVMax= 1.52D-04

 Cycle   7  Pass 1  IDiag  1:
 E= -1569.64104905812     Delta-E=       -0.000000222801 Rises=F Damp=F
 DIIS: error= 7.04D-06 at cycle   7 NSaved=   7.
 NSaved= 7 IEnMin= 7 EnMin= -1569.64104905812     IErMin= 7 ErrMin= 7.04D-06
 ErrMax= 7.04D-06 EMaxC= 1.00D-01 BMatC= 1.06D-08 BMatP= 2.61D-07
 IDIUse=1 WtCom= 1.00D+00 WtEn= 0.00D+00
 Coeff-Com:  0.366D-03-0.508D-03-0.466D-02-0.163D-01-0.226D-01 0.113D+00
 Coeff-Com:  0.931D+00
 Coeff:      0.366D-03-0.508D-03-0.466D-02-0.163D-01-0.226D-01 0.113D+00
 Coeff:      0.931D+00
 Gap=     0.348 Goal=   None    Shift=    0.000
 RMSDP=2.34D-06 MaxDP=5.53D-05 DE=-2.23D-07 OVMax= 6.48D-05

 Cycle   8  Pass 1  IDiag  1:
 E= -1569.64104907299     Delta-E=       -0.000000014875 Rises=F Damp=F
 DIIS: error= 3.95D-06 at cycle   8 NSaved=   8.
 NSaved= 8 IEnMin= 8 EnMin= -1569.64104907299     IErMin= 8 ErrMin= 3.95D-06
 ErrMax= 3.95D-06 EMaxC= 1.00D-01 BMatC= 2.77D-09 BMatP= 1.06D-08
 IDIUse=1 WtCom= 1.00D+00 WtEn= 0.00D+00
 Coeff-Com:  0.130D-04 0.159D-02-0.767D-04-0.100D-01-0.330D-01-0.134D-02
 Coeff-Com:  0.407D+00 0.636D+00
 Coeff:      0.130D-04 0.159D-02-0.767D-04-0.100D-01-0.330D-01-0.134D-02
 Coeff:      0.407D+00 0.636D+00
 Gap=     0.348 Goal=   None    Shift=    0.000
 RMSDP=4.57D-07 MaxDP=9.67D-06 DE=-1.49D-08 OVMax= 1.29D-05

 Cycle   9  Pass 1  IDiag  1:
 E= -1569.64104907509     Delta-E=       -0.000000002096 Rises=F Damp=F
 DIIS: error= 1.48D-06 at cycle   9 NSaved=   9.
 NSaved= 9 IEnMin= 9 EnMin= -1569.64104907509     IErMin= 9 ErrMin= 1.48D-06
 ErrMax= 1.48D-06 EMaxC= 1.00D-01 BMatC= 3.31D-10 BMatP= 2.77D-09
 IDIUse=1 WtCom= 1.00D+00 WtEn= 0.00D+00
 Coeff-Com: -0.649D-04 0.852D-03 0.894D-03-0.204D-02-0.112D-01-0.223D-01
 Coeff-Com:  0.148D-01 0.260D+00 0.759D+00
 Coeff:     -0.649D-04 0.852D-03 0.894D-03-0.204D-02-0.112D-01-0.223D-01
 Coeff:      0.148D-01 0.260D+00 0.759D+00
 Gap=     0.348 Goal=   None    Shift=    0.000
 RMSDP=2.36D-07 MaxDP=4.19D-06 DE=-2.10D-09 OVMax= 6.66D-06

 Cycle  10  Pass 1  IDiag  1:
 E= -1569.64104907541     Delta-E=       -0.000000000321 Rises=F Damp=F
 DIIS: error= 1.96D-07 at cycle  10 NSaved=  10.
 NSaved=10 IEnMin=10 EnMin= -1569.64104907541     IErMin=10 ErrMin= 1.96D-07
 ErrMax= 1.96D-07 EMaxC= 1.00D-01 BMatC= 8.51D-12 BMatP= 3.31D-10
 IDIUse=1 WtCom= 1.00D+00 WtEn= 0.00D+00
 Coeff-Com: -0.973D-05 0.162D-04 0.144D-03 0.234D-03 0.339D-03-0.417D-02
 Coeff-Com: -0.237D-01 0.353D-02 0.143D+00 0.881D+00
 Coeff:     -0.973D-05 0.162D-04 0.144D-03 0.234D-03 0.339D-03-0.417D-02
 Coeff:     -0.237D-01 0.353D-02 0.143D+00 0.881D+00
 Gap=     0.348 Goal=   None    Shift=    0.000
 RMSDP=6.36D-08 MaxDP=1.89D-06 DE=-3.21D-10 OVMax= 1.70D-06

 Cycle  11  Pass 1  IDiag  1:
 E= -1569.64104907543     Delta-E=       -0.000000000018 Rises=F Damp=F
 DIIS: error= 3.79D-08 at cycle  11 NSaved=  11.
 NSaved=11 IEnMin=11 EnMin= -1569.64104907543     IErMin=11 ErrMin= 3.79D-08
 ErrMax= 3.79D-08 EMaxC= 1.00D-01 BMatC= 6.66D-13 BMatP= 8.51D-12
 IDIUse=1 WtCom= 1.00D+00 WtEn= 0.00D+00
 Coeff-Com:  0.670D-06-0.375D-04-0.890D-05 0.154D-03 0.662D-03-0.768D-04
 Coeff-Com: -0.659D-02-0.137D-01-0.961D-02 0.231D+00 0.799D+00
 Coeff:      0.670D-06-0.375D-04-0.890D-05 0.154D-03 0.662D-03-0.768D-04
 Coeff:     -0.659D-02-0.137D-01-0.961D-02 0.231D+00 0.799D+00
 Gap=     0.348 Goal=   None    Shift=    0.000
 RMSDP=1.36D-08 MaxDP=3.26D-07 DE=-1.77D-11 OVMax= 3.26D-07

 Cycle  12  Pass 1  IDiag  1:
 E= -1569.64104907542     Delta-E=        0.000000000009 Rises=F Damp=F
 DIIS: error= 9.48D-09 at cycle  12 NSaved=  12.
 NSaved=12 IEnMin=11 EnMin= -1569.64104907543     IErMin=12 ErrMin= 9.48D-09
 ErrMax= 9.48D-09 EMaxC= 1.00D-01 BMatC= 3.91D-14 BMatP= 6.66D-13
 IDIUse=1 WtCom= 1.00D+00 WtEn= 0.00D+00
 Coeff-Com:  0.785D-06-0.969D-05-0.882D-05 0.281D-04 0.137D-03 0.236D-03
 Coeff-Com:  0.289D-03-0.282D-02-0.115D-01-0.211D-01 0.160D+00 0.874D+00
 Coeff:      0.785D-06-0.969D-05-0.882D-05 0.281D-04 0.137D-03 0.236D-03
 Coeff:      0.289D-03-0.282D-02-0.115D-01-0.211D-01 0.160D+00 0.874D+00
 Gap=     0.348 Goal=   None    Shift=    0.000
 RMSDP=3.35D-09 MaxDP=5.51D-08 DE= 8.64D-12 OVMax= 8.96D-08

 Error on total polarization charges =  0.01397
 SCF Done:  E(RM052X) =  -1569.64104908     A.U. after   12 cycles
             Convg  =    0.3352D-08             -V/T =  2.0021
 KE= 1.566349467786D+03 PE=-4.678926443315D+03 EE= 1.066340871457D+03
 SMD-CDS (non-electrostatic) energy       (kcal/mol) =       1.43
 (included in total energy above)
 Leave Link  502 at Mon Dec 13 16:56:55 2021, MaxMem= 1342177280 cpu:     142.5
 (Enter /LUSTRE/yoltla/nc/app/gaussian/09/g09/l701.exe)
 Compute integral first derivatives.
 ... and contract with generalized density number  0.
 D1PCM: PCM CHGder 1st derivatives, ID1Alg=3 FixD1E=F DoIter=F DoCFld=F I1PDM=0.
 GePol: Maximum number of non-zero 1st derivatives   =     324
 Leave Link  701 at Mon Dec 13 16:56:55 2021, MaxMem= 1342177280 cpu:      10.8
 (Enter /LUSTRE/yoltla/nc/app/gaussian/09/g09/l702.exe)
 L702 exits ... SP integral derivatives will be done elsewhere.
 Leave Link  702 at Mon Dec 13 16:56:55 2021, MaxMem= 1342177280 cpu:       0.3
 (Enter /LUSTRE/yoltla/nc/app/gaussian/09/g09/l703.exe)
 Compute integral first derivatives, UseDBF=F ICtDFT=           0.
 Integral derivatives from FoFDir, PRISM(SPDF).
 Calling FoFJK, ICntrl=      2127 FMM=F ISym2X=0 I1Cent= 0 IOpClX= 0 NMat=1 NMatS=1 NMatT=0.
 FoFCou: FMM=F IPFlag=           0 FMFlag=      100000 FMFlg1=         800
         NFxFlg=           0 DoJE=F BraDBF=F KetDBF=F FulRan=T
         Omega=  0.000000  0.000000  1.000000  0.000000  0.000000 ICntrl=    2127 IOpCl=  0
         NMat0=    1 NMatS0=    1 NMatT0=    0 NMatD0=    1 NMtDS0=    0 NMtDT0=    0
         I1Cent=           0 NGrid=           0.
 Symmetry not used in FoFCou.
 Leave Link  703 at Mon Dec 13 16:56:56 2021, MaxMem= 1342177280 cpu:      16.0
 (Enter /LUSTRE/yoltla/nc/app/gaussian/09/g09/l716.exe)
 Dipole        = 1.03710831D+00-5.45153153D-01 1.52133134D-04
 -------------------------------------------------------------------
 Center     Atomic                   Forces (Hartrees/Bohr)
 Number     Number              X              Y              Z
 -------------------------------------------------------------------
      1        6           0.006819391   -0.005616246   -0.000026111
      2        8           0.016433954    0.044249292    0.000050211
      3        8          -0.046699617   -0.039668215   -0.000049019
      4        1          -0.029749605   -0.003783701   -0.000010258
      5       17           0.057260163   -0.005760576    0.000047095
      6       17          -0.002035303    0.005275906    0.001278541
      7       17          -0.002028984    0.005303539   -0.001290460
 -------------------------------------------------------------------
 Cartesian Forces:  Max     0.057260163 RMS     0.022188949
 Leave Link  716 at Mon Dec 13 16:56:56 2021, MaxMem= 1342177280 cpu:       0.3
 (Enter /LUSTRE/yoltla/nc/app/gaussian/09/g09/l103.exe)

 GradGradGradGradGradGradGradGradGradGradGradGradGradGradGradGradGradGrad
 Berny optimization.
 Using GEDIIS/GDIIS optimizer.
 Internal  Forces:  Max     0.051392921 RMS     0.015219381
 Search for a local minimum.
 Step number   2 out of a maximum of   36
 All quantities printed in internal units (Hartrees-Bohrs-Radians)
 RMS Force = .15219D-01 SwitMx=.10000D-02 MixMth= 1
 Mixed Optimization -- RFO/linear search
 Update second derivatives using D2CorX and points    1    2
 DE= -3.31D-02 DEPred=-3.72D-02 R= 8.89D-01
 SS=  1.41D+00  RLast= 3.05D-01 DXNew= 5.0454D-01 9.1456D-01
 Trust test= 8.89D-01 RLast= 3.05D-01 DXMaxT set to 5.05D-01
 ITU=  1  0
 Use linear search instead of GDIIS.
     Eigenvalues ---    0.00847   0.01829   0.11224   0.14785   0.17302
     Eigenvalues ---    0.17965   0.18458   0.23080   0.24503   0.29146
     Eigenvalues ---    0.29539   0.29551   0.48234   0.53806   0.62837
 RFO step:  Lambda=-1.12574573D-02 EMin= 8.47309880D-03
 Quartic linear search produced a step of  1.43854.
 Iteration  1 RMS(Cart)=  0.05964211 RMS(Int)=  0.05302072
 Iteration  2 RMS(Cart)=  0.03184111 RMS(Int)=  0.01148972
 Iteration  3 RMS(Cart)=  0.00852794 RMS(Int)=  0.00243464
 Iteration  4 RMS(Cart)=  0.00002443 RMS(Int)=  0.00243451
 Iteration  5 RMS(Cart)=  0.00000005 RMS(Int)=  0.00243451
 Variable       Old X    -DE/DX   Delta X   Delta X   Delta X     New X
                                 (Linear)    (Quad)   (Total)
    R1        2.61613   0.00872   0.04086  -0.02115   0.01928   2.63541
    R2        3.35785   0.01147   0.04593  -0.00187   0.04362   3.40146
    R3        3.33488   0.00278   0.01289   0.00036   0.01325   3.34813
    R4        3.33498   0.00281   0.01304   0.00029   0.01333   3.34832
    R5        2.55319   0.04547   0.08452   0.04498   0.12957   2.68276
    R6        1.88455   0.01727   0.10129  -0.09372   0.00810   1.89264
    R7        3.12710   0.05139   0.34392   0.13601   0.48034   3.60743
    A1        1.87167   0.00966   0.05383   0.03050   0.08245   1.95413
    A2        1.93536  -0.00771  -0.04196  -0.02120  -0.06691   1.86846
    A3        1.93539  -0.00770  -0.04190  -0.02107  -0.06677   1.86862
    A4        1.89469   0.00463   0.03647   0.00981   0.04644   1.94113
    A5        1.89437   0.00468   0.03688   0.00987   0.04691   1.94128
    A6        1.93048  -0.00262  -0.03249  -0.00541  -0.04401   1.88647
    A7        1.97610   0.00668   0.09417  -0.02856   0.06531   2.04141
    A8        1.81302  -0.01866  -0.14042   0.05292  -0.08639   1.72663
    A9        2.40565   0.00505   0.05918  -0.04692   0.01340   2.41905
   A10        1.35834  -0.00272  -0.06676  -0.00793  -0.07478   1.28356
    D1       -0.00053  -0.00002  -0.00019  -0.00033  -0.00054  -0.00107
    D2       -2.06639  -0.00712  -0.05387  -0.01867  -0.06634  -2.13274
    D3        2.06496   0.00713   0.05400   0.01816   0.06593   2.13089
    D4        0.00055   0.00001   0.00008   0.00013   0.00020   0.00075
    D5        2.09259  -0.00115  -0.00122  -0.00245  -0.00228   2.09031
    D6       -2.09135   0.00114   0.00114   0.00253   0.00223  -2.08913
    D7        0.00010   0.00002   0.00014   0.00039   0.00052   0.00062
    D8        0.00060  -0.00001  -0.00006  -0.00042  -0.00046   0.00014
    D9       -0.00081   0.00000  -0.00005   0.00022   0.00018  -0.00063
         Item               Value     Threshold  Converged?
 Maximum Force            0.051393     0.000450     NO 
 RMS     Force            0.015219     0.000300     NO 
 Maximum Displacement     0.279595     0.001800     NO 
 RMS     Displacement     0.092007     0.001200     NO 
 Predicted change in Energy=-5.468402D-03
 GradGradGradGradGradGradGradGradGradGradGradGradGradGradGradGradGradGrad

 Leave Link  103 at Mon Dec 13 16:56:58 2021, MaxMem= 1342177280 cpu:      26.4
 (Enter /LUSTRE/yoltla/nc/app/gaussian/09/g09/l202.exe)
                          Input orientation:                          
 ---------------------------------------------------------------------
 Center     Atomic      Atomic             Coordinates (Angstroms)
 Number     Number       Type             X           Y           Z
 ---------------------------------------------------------------------
      1          6           0        1.488251    0.923845   -0.000044
      2          8           0        0.093685    0.914441    0.000102
      3          8           0       -0.541489   -0.355196   -0.001037
      4          1           0        0.273816   -0.936890   -0.001068
      5         17           0        2.172702   -0.740919    0.000086
      6         17           0        2.001938    1.828489    1.434130
      7         17           0        2.001954    1.828578   -1.434281
 ---------------------------------------------------------------------
                    Distance matrix (angstroms):
                    1          2          3          4          5
     1  C    0.000000
     2  O    1.394598   0.000000
     3  O    2.399123   1.419656   0.000000
     4  H    2.221978   1.860073   1.001544   0.000000
     5  Cl   1.799976   2.657542   2.741463   1.908972   0.000000
     6  Cl   1.771753   2.556042   3.646533   3.562796   2.947456
     7  Cl   1.771854   2.556284   3.645840   3.562073   2.947690
                    6          7
     6  Cl   0.000000
     7  Cl   2.868411   0.000000
 Symmetry turned off by external request.
 Stoichiometry    CHCl3O2
 Framework group  C1[X(CHCl3O2)]
 Deg. of freedom    15
 Full point group                 C1      NOp   1
 Rotational constants (GHZ):      1.9663684      1.6043029      1.4618183
 Leave Link  202 at Mon Dec 13 16:56:58 2021, MaxMem= 1342177280 cpu:       0.6
 (Enter /LUSTRE/yoltla/nc/app/gaussian/09/g09/l301.exe)
 Standard basis: 6-311+G(d,p) (5D, 7F)
 Ernie: Thresh=  0.10000D-02 Tol=  0.10000D-05 Strict=F.
 Integral buffers will be    131072 words long.
 Raffenetti 2 integral format.
 Two-electron integral symmetry is turned off.
   162 basis functions,   275 primitive gaussians,   168 cartesian basis functions
    37 alpha electrons       37 beta electrons
       nuclear repulsion energy       467.4685503494 Hartrees.
 IExCor= 3428 DFT=T Ex+Corr=M052X ExCW=0 ScaHFX=  0.560000
 ScaDFX=  0.440000  0.440000  1.000000  1.000000 ScalE2=  1.000000  1.000000
 IRadAn=      0 IRanWt=     -1 IRanGd=            0 ICorTp=0
 NAtoms=    7 NActive=    7 NUniq=    7 SFac= 1.00D+00 NAtFMM=   50 NAOKFM=F Big=F
 ------------------------------------------------------------------------------
 Polarizable Continuum Model (PCM)
 =================================
 Model                : PCM.
 Atomic radii         : SMD-Coulomb.
 Polarization charges : Total charges.
 Charge compensation  : None.
 Solution method      : Matrix inversion.
 Cavity type          : VdW (van der Waals Surface) (Alpha=1.000).
 Cavity algorithm     : GePol (No added spheres)
                        Default sphere list used, NSphG=    7.
                        Lebedev-Laikov grids with approx.  5.0 points / Ang**2.
                        Smoothing algorithm: Karplus/York (Gamma=1.0000).
                        Polarization charges: spherical gaussians, with
                                              point-specific exponents (IZeta= 3).
                        Self-potential: point-specific (ISelfS= 7).
                        Self-field    : sphere-specific E.n sum rule (ISelfD= 2).
 1st derivatives      : Analytical E(r).r(x)/FMM algorithm (CHGder, D1EAlg=3).
                        Cavity 1st derivative terms included.
 Solvent              : Water, Eps=  78.355300 Eps(inf)=   1.777849
 ------------------------------------------------------------------------------
 Spheres list:
 ISph  on   Nord    Re0     Alpha      Xe            Ye            Ze
    1   C      1    1.850   1.000      1.488251      0.923845     -0.000044
    2   O      2    1.520   1.000      0.093685      0.914441      0.000102
    3   O      3    1.520   1.000     -0.541489     -0.355196     -0.001037
    4   H      4    1.200   1.000      0.273816     -0.936890     -0.001068
    5  Cl      5    2.380   1.000      2.172702     -0.740919      0.000086
    6  Cl      6    2.380   1.000      2.001938      1.828489      1.434130
    7  Cl      7    2.380   1.000      2.001954      1.828578     -1.434281
 ------------------------------------------------------------------------------
 GePol: Number of generator spheres                  =       7
 GePol: Total number of spheres                      =       7
 GePol: Number of exposed spheres                    =       7 (100.00%)
 GePol: Number of points                             =    1018
 GePol: Average weight of points                     =       0.15
 GePol: Minimum weight of points                     =   0.16D-04
 GePol: Maximum weight of points                     =    0.21991
 GePol: Number of points with low weight             =      28
 GePol: Fraction of low-weight points (<1% of avg)   =       2.75%
 GePol: Cavity surface area                          =    157.579 Ang**2
 GePol: Cavity volume                                =    154.525 Ang**3
 ------------------------------------------------------------------------------
 Atomic radii for non-electrostatic terms: SMD-CDS.
 ------------------------------------------------------------------------------
 PCM non-electrostatic energy =         0.0022908277 Hartrees.
 Nuclear repulsion after PCM non-electrostatic terms =      467.4708411771 Hartrees.
 Leave Link  301 at Mon Dec 13 16:56:58 2021, MaxMem= 1342177280 cpu:       1.2
 (Enter /LUSTRE/yoltla/nc/app/gaussian/09/g09/l302.exe)
 NPDir=0 NMtPBC=     1 NCelOv=     1 NCel=       1 NClECP=     1 NCelD=      1
         NCelK=      1 NCelE2=     1 NClLst=     1 CellRange=     0.0.
 One-electron integrals computed using PRISM.
 NBasis=   162 RedAO= T  NBF=   162
 NBsUse=   162 1.00D-06 NBFU=   162
 Precomputing XC quadrature grid using
 IXCGrd= 2 IRadAn=           0 IRanWt=          -1 IRanGd=           0 AccXCQ= 0.00D+00.
 NRdTot=     443 NPtTot=       56442 NUsed=       59647 NTot=       59679
 NSgBfM=   168   168   168   168   168 NAtAll=     7     7.
 Leave Link  302 at Mon Dec 13 16:56:58 2021, MaxMem= 1342177280 cpu:       8.1
 (Enter /LUSTRE/yoltla/nc/app/gaussian/09/g09/l303.exe)
 DipDrv:  MaxL=1.
 Leave Link  303 at Mon Dec 13 16:56:58 2021, MaxMem= 1342177280 cpu:       3.3
 (Enter /LUSTRE/yoltla/nc/app/gaussian/09/g09/l401.exe)
 Initial guess read from the read-write file.
 B after Tr=     0.000000    0.000000    0.000000
         Rot=    1.000000    0.000000    0.000000    0.000000 Ang=   0.00 deg.
 Guess basis will be translated and rotated to current coordinates.
 Generating alternative initial guess.
 Harris functional with IExCor= 1009 diagonalized for initial guess.
 ExpMin= 4.38D-02 ExpMax= 1.06D+05 ExpMxC= 3.62D+03 IAcc=2 IRadAn=         0 AccDes= 0.00D+00
 HarFok:  IExCor= 1009 AccDes= 0.00D+00 IRadAn=         0 IDoV= 1
 ScaDFX=  1.000000  1.000000  1.000000  1.000000
 FoFCou: FMM=F IPFlag=           0 FMFlag=      100000 FMFlg1=           0
         NFxFlg=           0 DoJE=T BraDBF=F KetDBF=T FulRan=T
         Omega=  0.000000  0.000000  1.000000  0.000000  0.000000 ICntrl=     500 IOpCl=  0
         NMat0=    1 NMatS0=    1 NMatT0=    0 NMatD0=    1 NMtDS0=    0 NMtDT0=    0
         I1Cent=           4 NGrid=           0.
 Symmetry not used in FoFCou.
 Harris En= -1568.69451880324    
 Leave Link  401 at Mon Dec 13 16:56:59 2021, MaxMem= 1342177280 cpu:      13.4
 (Enter /LUSTRE/yoltla/nc/app/gaussian/09/g09/l502.exe)
 Closed shell SCF:
 Requested convergence on RMS density matrix=1.00D-08 within 128 cycles.
 Requested convergence on MAX density matrix=1.00D-06.
 Requested convergence on             energy=1.00D-06.
 No special actions if energy rises.
 Using DIIS extrapolation, IDIIS=  1040.
 Two-electron integral symmetry not used.
        59571 words used for storage of precomputed grid.
 Keep R1 ints in memory in canonical form, NReq=105229431.
 IEnd=      166771 IEndB=      166771 NGot=  1342177280 MDV=  1241285208
 LenX=  1241285208 LenY=  1241256543
 Symmetry not used in FoFDir.
 MinBra= 0 MaxBra= 2 Meth= 1.
 IRaf=       0 NMat=   1 IRICut=       1 DoRegI=T DoRafI=F ISym2E= 0 JSym2E=0.

 Cycle   1  Pass 1  IDiag  1:
 E= -1569.63949972646    
 DIIS: error= 7.59D-03 at cycle   1 NSaved=   1.
 NSaved= 1 IEnMin= 1 EnMin= -1569.63949972646     IErMin= 1 ErrMin= 7.59D-03
 ErrMax= 7.59D-03 EMaxC= 1.00D-01 BMatC= 1.18D-02 BMatP= 1.18D-02
 IDIUse=3 WtCom= 9.24D-01 WtEn= 7.59D-02
 Coeff-Com:  0.100D+01
 Coeff-En:   0.100D+01
 Coeff:      0.100D+01
 Gap=     0.364 Goal=   None    Shift=    0.000
 GapD=    0.364 DampG=1.000 DampE=1.000 DampFc=1.0000 IDamp=-1.
 RMSDP=2.03D-03 MaxDP=4.91D-02              OVMax= 3.79D-02

 Cycle   2  Pass 1  IDiag  1:
 E= -1569.65704485294     Delta-E=       -0.017545126480 Rises=F Damp=F
 DIIS: error= 1.41D-03 at cycle   2 NSaved=   2.
 NSaved= 2 IEnMin= 2 EnMin= -1569.65704485294     IErMin= 2 ErrMin= 1.41D-03
 ErrMax= 1.41D-03 EMaxC= 1.00D-01 BMatC= 6.95D-04 BMatP= 1.18D-02
 IDIUse=3 WtCom= 9.86D-01 WtEn= 1.41D-02
 Coeff-Com: -0.301D-01 0.103D+01
 Coeff-En:   0.000D+00 0.100D+01
 Coeff:     -0.297D-01 0.103D+01
 Gap=     0.349 Goal=   None    Shift=    0.000
 RMSDP=3.67D-04 MaxDP=8.95D-03 DE=-1.75D-02 OVMax= 1.23D-02

 Cycle   3  Pass 1  IDiag  1:
 E= -1569.65783113842     Delta-E=       -0.000786285479 Rises=F Damp=F
 DIIS: error= 1.73D-03 at cycle   3 NSaved=   3.
 NSaved= 3 IEnMin= 3 EnMin= -1569.65783113842     IErMin= 2 ErrMin= 1.41D-03
 ErrMax= 1.73D-03 EMaxC= 1.00D-01 BMatC= 4.76D-04 BMatP= 6.95D-04
 IDIUse=3 WtCom= 9.83D-01 WtEn= 1.73D-02
 Coeff-Com: -0.684D-01 0.478D+00 0.590D+00
 Coeff-En:   0.000D+00 0.000D+00 0.100D+01
 Coeff:     -0.672D-01 0.470D+00 0.597D+00
 Gap=     0.350 Goal=   None    Shift=    0.000
 RMSDP=1.92D-04 MaxDP=6.07D-03 DE=-7.86D-04 OVMax= 5.10D-03

 Cycle   4  Pass 1  IDiag  1:
 E= -1569.65820423385     Delta-E=       -0.000373095432 Rises=F Damp=F
 DIIS: error= 5.04D-04 at cycle   4 NSaved=   4.
 NSaved= 4 IEnMin= 4 EnMin= -1569.65820423385     IErMin= 4 ErrMin= 5.04D-04
 ErrMax= 5.04D-04 EMaxC= 1.00D-01 BMatC= 6.17D-05 BMatP= 4.76D-04
 IDIUse=3 WtCom= 9.95D-01 WtEn= 5.04D-03
 Coeff-Com: -0.238D-01 0.664D-01 0.280D+00 0.677D+00
 Coeff-En:   0.000D+00 0.000D+00 0.000D+00 0.100D+01
 Coeff:     -0.237D-01 0.661D-01 0.279D+00 0.679D+00
 Gap=     0.349 Goal=   None    Shift=    0.000
 RMSDP=6.57D-05 MaxDP=1.45D-03 DE=-3.73D-04 OVMax= 2.08D-03

 Cycle   5  Pass 1  IDiag  1:
 E= -1569.65826087644     Delta-E=       -0.000056642588 Rises=F Damp=F
 DIIS: error= 1.31D-04 at cycle   5 NSaved=   5.
 NSaved= 5 IEnMin= 5 EnMin= -1569.65826087644     IErMin= 5 ErrMin= 1.31D-04
 ErrMax= 1.31D-04 EMaxC= 1.00D-01 BMatC= 4.16D-06 BMatP= 6.17D-05
 IDIUse=3 WtCom= 9.99D-01 WtEn= 1.31D-03
 Coeff-Com:  0.200D-02-0.472D-01 0.292D-02 0.211D+00 0.831D+00
 Coeff-En:   0.000D+00 0.000D+00 0.000D+00 0.000D+00 0.100D+01
 Coeff:      0.200D-02-0.472D-01 0.291D-02 0.211D+00 0.831D+00
 Gap=     0.350 Goal=   None    Shift=    0.000
 RMSDP=2.59D-05 MaxDP=5.30D-04 DE=-5.66D-05 OVMax= 7.36D-04

 Cycle   6  Pass 1  IDiag  1:
 E= -1569.65826527054     Delta-E=       -0.000004394105 Rises=F Damp=F
 DIIS: error= 4.15D-05 at cycle   6 NSaved=   6.
 NSaved= 6 IEnMin= 6 EnMin= -1569.65826527054     IErMin= 6 ErrMin= 4.15D-05
 ErrMax= 4.15D-05 EMaxC= 1.00D-01 BMatC= 6.56D-07 BMatP= 4.16D-06
 IDIUse=1 WtCom= 1.00D+00 WtEn= 0.00D+00
 Coeff-Com:  0.311D-02-0.293D-01-0.250D-01 0.438D-01 0.370D+00 0.637D+00
 Coeff:      0.311D-02-0.293D-01-0.250D-01 0.438D-01 0.370D+00 0.637D+00
 Gap=     0.350 Goal=   None    Shift=    0.000
 RMSDP=8.91D-06 MaxDP=1.87D-04 DE=-4.39D-06 OVMax= 2.67D-04

 Cycle   7  Pass 1  IDiag  1:
 E= -1569.65826589305     Delta-E=       -0.000000622504 Rises=F Damp=F
 DIIS: error= 1.62D-05 at cycle   7 NSaved=   7.
 NSaved= 7 IEnMin= 7 EnMin= -1569.65826589305     IErMin= 7 ErrMin= 1.62D-05
 ErrMax= 1.62D-05 EMaxC= 1.00D-01 BMatC= 4.10D-08 BMatP= 6.56D-07
 IDIUse=1 WtCom= 1.00D+00 WtEn= 0.00D+00
 Coeff-Com:  0.558D-03-0.209D-02-0.666D-02-0.104D-01-0.875D-02 0.169D+00
 Coeff-Com:  0.859D+00
 Coeff:      0.558D-03-0.209D-02-0.666D-02-0.104D-01-0.875D-02 0.169D+00
 Coeff:      0.859D+00
 Gap=     0.350 Goal=   None    Shift=    0.000
 RMSDP=3.72D-06 MaxDP=7.48D-05 DE=-6.23D-07 OVMax= 1.09D-04

 Cycle   8  Pass 1  IDiag  1:
 E= -1569.65826594204     Delta-E=       -0.000000048989 Rises=F Damp=F
 DIIS: error= 7.53D-06 at cycle   8 NSaved=   8.
 NSaved= 8 IEnMin= 8 EnMin= -1569.65826594204     IErMin= 8 ErrMin= 7.53D-06
 ErrMax= 7.53D-06 EMaxC= 1.00D-01 BMatC= 9.89D-09 BMatP= 4.10D-08
 IDIUse=1 WtCom= 1.00D+00 WtEn= 0.00D+00
 Coeff-Com: -0.431D-04 0.207D-02-0.116D-03-0.898D-02-0.445D-01 0.113D-01
 Coeff-Com:  0.402D+00 0.638D+00
 Coeff:     -0.431D-04 0.207D-02-0.116D-03-0.898D-02-0.445D-01 0.113D-01
 Coeff:      0.402D+00 0.638D+00
 Gap=     0.350 Goal=   None    Shift=    0.000
 RMSDP=9.91D-07 MaxDP=1.73D-05 DE=-4.90D-08 OVMax= 2.98D-05

 Cycle   9  Pass 1  IDiag  1:
 E= -1569.65826595087     Delta-E=       -0.000000008832 Rises=F Damp=F
 DIIS: error= 1.56D-06 at cycle   9 NSaved=   9.
 NSaved= 9 IEnMin= 9 EnMin= -1569.65826595087     IErMin= 9 ErrMin= 1.56D-06
 ErrMax= 1.56D-06 EMaxC= 1.00D-01 BMatC= 6.30D-10 BMatP= 9.89D-09
 IDIUse=1 WtCom= 1.00D+00 WtEn= 0.00D+00
 Coeff-Com: -0.879D-04 0.920D-03 0.977D-03-0.162D-02-0.125D-01-0.193D-01
 Coeff-Com:  0.220D-02 0.194D+00 0.835D+00
 Coeff:     -0.879D-04 0.920D-03 0.977D-03-0.162D-02-0.125D-01-0.193D-01
 Coeff:      0.220D-02 0.194D+00 0.835D+00
 Gap=     0.350 Goal=   None    Shift=    0.000
 RMSDP=3.87D-07 MaxDP=5.57D-06 DE=-8.83D-09 OVMax= 1.24D-05

 Cycle  10  Pass 1  IDiag  1:
 E= -1569.65826595164     Delta-E=       -0.000000000775 Rises=F Damp=F
 DIIS: error= 2.96D-07 at cycle  10 NSaved=  10.
 NSaved=10 IEnMin=10 EnMin= -1569.65826595164     IErMin=10 ErrMin= 2.96D-07
 ErrMax= 2.96D-07 EMaxC= 1.00D-01 BMatC= 2.24D-11 BMatP= 6.30D-10
 IDIUse=1 WtCom= 1.00D+00 WtEn= 0.00D+00
 Coeff-Com: -0.999D-05 0.216D-06 0.159D-03 0.205D-03 0.755D-03-0.406D-02
 Coeff-Com: -0.261D-01-0.607D-02 0.154D+00 0.881D+00
 Coeff:     -0.999D-05 0.216D-06 0.159D-03 0.205D-03 0.755D-03-0.406D-02
 Coeff:     -0.261D-01-0.607D-02 0.154D+00 0.881D+00
 Gap=     0.350 Goal=   None    Shift=    0.000
 RMSDP=1.06D-07 MaxDP=2.51D-06 DE=-7.75D-10 OVMax= 2.45D-06

 Cycle  11  Pass 1  IDiag  1:
 E= -1569.65826595166     Delta-E=       -0.000000000020 Rises=F Damp=F
 DIIS: error= 7.40D-08 at cycle  11 NSaved=  11.
 NSaved=11 IEnMin=11 EnMin= -1569.65826595166     IErMin=11 ErrMin= 7.40D-08
 ErrMax= 7.40D-08 EMaxC= 1.00D-01 BMatC= 1.83D-12 BMatP= 2.24D-11
 IDIUse=1 WtCom= 1.00D+00 WtEn= 0.00D+00
 Coeff-Com:  0.214D-05-0.470D-04-0.155D-04 0.132D-03 0.857D-03 0.832D-04
 Coeff-Com: -0.614D-02-0.113D-01-0.172D-01 0.211D+00 0.823D+00
 Coeff:      0.214D-05-0.470D-04-0.155D-04 0.132D-03 0.857D-03 0.832D-04
 Coeff:     -0.614D-02-0.113D-01-0.172D-01 0.211D+00 0.823D+00
 Gap=     0.350 Goal=   None    Shift=    0.000
 RMSDP=2.18D-08 MaxDP=5.11D-07 DE=-2.05D-11 OVMax= 5.42D-07

 Cycle  12  Pass 1  IDiag  1:
 E= -1569.65826595167     Delta-E=       -0.000000000007 Rises=F Damp=F
 DIIS: error= 1.79D-08 at cycle  12 NSaved=  12.
 NSaved=12 IEnMin=12 EnMin= -1569.65826595167     IErMin=12 ErrMin= 1.79D-08
 ErrMax= 1.79D-08 EMaxC= 1.00D-01 BMatC= 1.42D-13 BMatP= 1.83D-12
 IDIUse=1 WtCom= 1.00D+00 WtEn= 0.00D+00
 Coeff-Com:  0.132D-05-0.130D-04-0.141D-04 0.262D-04 0.189D-03 0.311D-03
 Coeff-Com:  0.298D-03-0.225D-02-0.159D-01-0.189D-01 0.201D+00 0.836D+00
 Coeff:      0.132D-05-0.130D-04-0.141D-04 0.262D-04 0.189D-03 0.311D-03
 Coeff:      0.298D-03-0.225D-02-0.159D-01-0.189D-01 0.201D+00 0.836D+00
 Gap=     0.350 Goal=   None    Shift=    0.000
 RMSDP=5.61D-09 MaxDP=1.01D-07 DE=-7.05D-12 OVMax= 1.65D-07

 Error on total polarization charges =  0.01380
 SCF Done:  E(RM052X) =  -1569.65826595     A.U. after   12 cycles
             Convg  =    0.5610D-08             -V/T =  2.0024
 KE= 1.565976681462D+03 PE=-4.660552721075D+03 EE= 1.057446932484D+03
 SMD-CDS (non-electrostatic) energy       (kcal/mol) =       1.44
 (included in total energy above)
 Leave Link  502 at Mon Dec 13 16:57:06 2021, MaxMem= 1342177280 cpu:     138.6
 (Enter /LUSTRE/yoltla/nc/app/gaussian/09/g09/l701.exe)
 Compute integral first derivatives.
 ... and contract with generalized density number  0.
 D1PCM: PCM CHGder 1st derivatives, ID1Alg=3 FixD1E=F DoIter=F DoCFld=F I1PDM=0.
 GePol: Maximum number of non-zero 1st derivatives   =     325
 Leave Link  701 at Mon Dec 13 16:57:07 2021, MaxMem= 1342177280 cpu:       9.6
 (Enter /LUSTRE/yoltla/nc/app/gaussian/09/g09/l702.exe)
 L702 exits ... SP integral derivatives will be done elsewhere.
 Leave Link  702 at Mon Dec 13 16:57:07 2021, MaxMem= 1342177280 cpu:       0.4
 (Enter /LUSTRE/yoltla/nc/app/gaussian/09/g09/l703.exe)
 Compute integral first derivatives, UseDBF=F ICtDFT=           0.
 Integral derivatives from FoFDir, PRISM(SPDF).
 Calling FoFJK, ICntrl=      2127 FMM=F ISym2X=0 I1Cent= 0 IOpClX= 0 NMat=1 NMatS=1 NMatT=0.
 FoFCou: FMM=F IPFlag=           0 FMFlag=      100000 FMFlg1=         800
         NFxFlg=           0 DoJE=F BraDBF=F KetDBF=F FulRan=T
         Omega=  0.000000  0.000000  1.000000  0.000000  0.000000 ICntrl=    2127 IOpCl=  0
         NMat0=    1 NMatS0=    1 NMatT0=    0 NMatD0=    1 NMtDS0=    0 NMtDT0=    0
         I1Cent=           0 NGrid=           0.
 Symmetry not used in FoFCou.
 Leave Link  703 at Mon Dec 13 16:57:08 2021, MaxMem= 1342177280 cpu:      14.7
 (Enter /LUSTRE/yoltla/nc/app/gaussian/09/g09/l716.exe)
 Dipole        = 9.18087102D-01-7.15871405D-01 1.17192889D-04
 -------------------------------------------------------------------
 Center     Atomic                   Forces (Hartrees/Bohr)
 Number     Number              X              Y              Z
 -------------------------------------------------------------------
      1        6          -0.004005057    0.003160836   -0.000008340
      2        8          -0.003762666    0.004373638    0.000034485
      3        8           0.021159211   -0.008516609   -0.000019265
      4        1          -0.029509742   -0.002731598   -0.000011163
      5       17           0.009351806    0.012065302   -0.000005616
      6       17           0.003381995   -0.004158778    0.002745163
      7       17           0.003384453   -0.004192791   -0.002735264
 -------------------------------------------------------------------
 Cartesian Forces:  Max     0.029509742 RMS     0.009164277
 Leave Link  716 at Mon Dec 13 16:57:08 2021, MaxMem= 1342177280 cpu:       0.4
 (Enter /LUSTRE/yoltla/nc/app/gaussian/09/g09/l103.exe)

 GradGradGradGradGradGradGradGradGradGradGradGradGradGradGradGradGradGrad
 Berny optimization.
 Using GEDIIS/GDIIS optimizer.
 Internal  Forces:  Max     0.016491612 RMS     0.006200622
 Search for a local minimum.
 Step number   3 out of a maximum of   36
 All quantities printed in internal units (Hartrees-Bohrs-Radians)
 RMS Force = .62006D-02 SwitMx=.10000D-02 MixMth= 1
 Mixed Optimization -- RFO/linear search
[...]
      8 -0.550332D-02 -0.190679D-01 -0.142276D-01 -0.916937D-01 -0.144511D+00
      9 -0.154223D-01  0.348894D-02 -0.465128D-03 -0.466707D-01 -0.722491D-01
     10 -0.285964D-02 -0.751514D-02  0.599454D-03 -0.602978D-02 -0.165659D-01
     11 -0.326562D-02 -0.206960D-02  0.946591D-03 -0.441643D-02 -0.210815D-01
     12  0.622696D-02 -0.315451D-02 -0.380500D-02 -0.217319D-01 -0.462165D-01
     13 -0.286056D-01 -0.145263D-02 -0.311437D-02 -0.144863D-01 -0.163822D-01
     14 -0.840633D-03 -0.442712D-01  0.237499D-01 -0.136067D-01 -0.144202D-02
     15 -0.202982D-02  0.279418D-01 -0.923070D-01  0.277374D-01  0.144871D-01
     16 -0.406679D-01 -0.168039D-01 -0.163818D-01 -0.240875D-01 -0.313471D-01
     17 -0.228772D-01 -0.756943D-01 -0.424196D-01 -0.194676D-01 -0.173531D-01
     18 -0.236717D-01 -0.443796D-01 -0.773852D-01 -0.112746D-01 -0.103814D-01
     19 -0.464342D-01  0.290059D-01 -0.513456D-02 -0.451830D-01  0.310823D-01
     20  0.300432D-01 -0.856490D-01  0.718845D-02  0.247001D-01 -0.842791D-02
     21 -0.224505D-02  0.399333D-02 -0.327452D-01  0.572067D-02 -0.731658D-02
                6             7             8             9            10 
      6  0.256225D+00
      7 -0.436436D-01  0.119609D+00
      8 -0.108540D+00  0.144619D+00  0.487017D+00
      9 -0.152014D+00  0.509573D-01 -0.130904D+00  0.347577D+00
     10  0.743460D-02 -0.140132D-01 -0.423132D-01  0.471345D-02  0.259379D-01
     11  0.682044D-02 -0.592899D-01 -0.326654D+00  0.196686D+00  0.654174D-01
     12  0.961405D-02  0.292901D-01  0.252224D+00 -0.201825D+00 -0.990740D-02
     13  0.331404D-01 -0.115788D-02 -0.144924D-02  0.315627D-02 -0.101975D-03
     14  0.140171D-01 -0.227922D-02 -0.151419D-02  0.318835D-02  0.211104D-03
     15 -0.307582D-01  0.457268D-04 -0.178567D-03  0.179171D-02 -0.701372D-03
     16 -0.266124D-01 -0.563224D-02 -0.520916D-02  0.154575D-02 -0.652280D-03
     17 -0.161295D-01 -0.404035D-02  0.535221D-03  0.531965D-03  0.253026D-03
     18 -0.485992D-02 -0.255711D-03 -0.423465D-03  0.409947D-02 -0.327068D-03
     19  0.451232D-02 -0.276144D-02  0.154970D-02  0.172016D-02 -0.228106D-02
     20 -0.519246D-02 -0.206026D-02  0.419495D-02 -0.742865D-03  0.512755D-03
     21  0.518123D-02 -0.223286D-02  0.204955D-02  0.836290D-03 -0.181166D-02
               11            12            13            14            15 
     11  0.349655D+00
     12 -0.203708D+00  0.197256D+00
     13  0.663777D-03  0.289860D-03  0.390557D-01
     14  0.480247D-03  0.206012D-03  0.738173D-02  0.648721D-01
     15 -0.996686D-03  0.625674D-03 -0.133287D-01 -0.567146D-01  0.176887D+00
     16  0.543259D-03 -0.172979D-02  0.365623D-02 -0.119602D-02 -0.469965D-02
     17  0.751765D-03 -0.538024D-03 -0.502575D-03  0.573230D-02 -0.429194D-02
     18  0.664709D-04 -0.715637D-03 -0.866051D-02 -0.128536D-01 -0.426456D-01
     19  0.347551D-03 -0.243785D-02  0.163980D-02  0.103297D-01 -0.702361D-02
     20 -0.108126D-02  0.118739D-02  0.117411D-01 -0.238573D-01  0.197529D-01
     21  0.184840D-03 -0.114929D-02 -0.114830D-01  0.284068D-01 -0.135934D-01
               16            17            18            19            20 
     16  0.631742D-01
     17  0.442896D-01  0.122796D+00
     18  0.423460D-01  0.824938D-01  0.122371D+00
     19  0.420958D-02  0.234512D-02  0.184360D-02  0.908104D-01
     20  0.972330D-02 -0.367680D-01 -0.145221D-01 -0.746602D-01  0.151589D+00
     21  0.553190D-02 -0.196467D-01 -0.864484D-03  0.651994D-02 -0.767128D-02
               21 
     21  0.423348D-01
 Force constants in internal coordinates: 
                1             2             3             4             5 
      1  0.294959D+00
      2  0.426738D-01  0.202172D+00
      3  0.330318D-01  0.281372D-01  0.227742D+00
      4  0.222884D-01  0.295089D-01  0.287693D-01  0.194593D+00
      5 -0.899680D-02  0.338096D-03  0.296743D-02 -0.104977D-01  0.326179D+00
      6 -0.498509D-02 -0.950885D-03 -0.834979D-03 -0.522861D-02 -0.131707D-01
      7  0.178373D-01 -0.591229D-03 -0.264494D-02  0.495241D-02  0.127204D-01
      8  0.509342D-01  0.290229D-01 -0.284908D-01 -0.296495D-01 -0.187587D-02
      9  0.422399D-01 -0.311831D-01  0.399887D-01 -0.271602D-01  0.262237D-01
     10 -0.408393D-01 -0.288939D-01 -0.237221D-01  0.185416D-02 -0.563393D-01
     11 -0.255844D-01  0.209391D-01  0.154538D-01 -0.972070D-02  0.476912D-02
     12 -0.170415D-01  0.227199D-01 -0.141832D-01  0.292671D-01  0.110852D-01
     13 -0.732321D-02 -0.154183D-01  0.141820D-01  0.325119D-01  0.167778D-01
     14 -0.348750D-01  0.252938D-02  0.165912D-01 -0.327951D-01  0.814791D-02
     15 -0.341384D-01 -0.584433D-03  0.450412D-02 -0.956296D-02  0.508082D-01
     16 -0.444219D-02  0.254855D-02 -0.286736D-01  0.222635D-01 -0.120523D-01
     17  0.143401D-01  0.233041D-01 -0.125261D-02 -0.191337D-01  0.773654D-02
     18  0.102894D-01 -0.269028D-01  0.270532D-01  0.440458D-02  0.153254D-01
     19 -0.211723D-01  0.446061D-03  0.323475D-02 -0.764084D-02 -0.206570D-01
                6             7             8             9            10 
      6  0.496557D+00
      7  0.167273D-02  0.200669D-01
      8  0.467767D-03  0.551897D-02  0.238018D+00
      9 -0.780770D-03  0.608069D-02 -0.312582D-01  0.242397D+00
     10 -0.138435D-01  0.655603D-03 -0.340476D-01 -0.216169D-01  0.131335D+00
     11  0.339970D-02 -0.582090D-02 -0.692834D-01 -0.768087D-01 -0.291914D-02
     12  0.398688D-02 -0.218987D-02 -0.744164D-01 -0.272701D-01 -0.474837D-01
     13  0.663191D-02 -0.401998D-02 -0.263806D-01 -0.765560D-01 -0.231117D-01
     14 -0.167726D-01  0.135999D-01  0.242407D-01  0.264592D-01 -0.115290D+00
     15 -0.923980D-02  0.202496D-02 -0.391770D-02  0.101564D-01 -0.407856D-01
     16 -0.144681D-02  0.411781D-02  0.205731D-01 -0.353841D-01  0.999595D-02
     17  0.233378D-02  0.342758D-02  0.360655D-01 -0.155638D-02 -0.223301D-01
     18  0.298375D-02  0.251896D-02 -0.296082D-01  0.377163D-01  0.166398D-02
     19 -0.144724D-02 -0.248517D-01 -0.516009D-02 -0.492337D-02 -0.107600D-01
               11            12            13            14            15 
     11  0.147176D+00
     12  0.119365D-02  0.140304D+00
     13  0.295906D-03 -0.403670D-02  0.129393D+00
     14  0.220011D-02  0.322727D-01  0.293899D-01  0.207929D+00
     15  0.951233D-02  0.115464D-01  0.134734D-01 -0.328436D-01  0.217366D+00
     16 -0.515892D-01  0.462256D-01  0.436770D-02 -0.103014D-01 -0.810611D-02
     17  0.440650D-01 -0.402183D-02 -0.520581D-01  0.192220D-01  0.704201D-02
     18 -0.136747D-02 -0.475714D-01  0.450438D-01  0.132111D-01  0.900171D-02
     19  0.871497D-02  0.537201D-02  0.644382D-02 -0.148182D-01  0.985056D-02
               16            17            18            19 
     16  0.590326D-01
     17 -0.121206D-01  0.563084D-01
     18 -0.225596D-01 -0.167939D-01  0.588981D-01
     19 -0.896434D-02 -0.402710D-02 -0.449548D-02  0.401141D-01
 Leave Link  716 at Mon Dec 13 17:13:35 2021, MaxMem= 1342177280 cpu:       5.7
 (Enter /LUSTRE/yoltla/nc/app/gaussian/09/g09/l103.exe)

 GradGradGradGradGradGradGradGradGradGradGradGradGradGradGradGradGradGrad
 Berny optimization.
 Red2BG is reusing G-inverse.
 Internal  Forces:  Max     0.000150145 RMS     0.000046984
 Search for a local minimum.
 Step number   1 out of a maximum of    2
 All quantities printed in internal units (Hartrees-Bohrs-Radians)
 Second derivative matrix not updated -- analytic derivatives used.
 The second derivative matrix:
                          R1        R2        R3        R4        R5
           R1           0.29496
           R2           0.04267   0.20217
           R3           0.03303   0.02814   0.22774
           R4           0.02229   0.02951   0.02877   0.19459
           R5          -0.00900   0.00034   0.00297  -0.01050   0.32618
           R6          -0.00499  -0.00095  -0.00083  -0.00523  -0.01317
           R7           0.01784  -0.00059  -0.00264   0.00495   0.01272
           A1           0.05093   0.02902  -0.02849  -0.02965  -0.00188
           A2           0.04224  -0.03118   0.03999  -0.02716   0.02622
           A3          -0.04084  -0.02889  -0.02372   0.00185  -0.05634
           A4          -0.02558   0.02094   0.01545  -0.00972   0.00477
           A5          -0.01704   0.02272  -0.01418   0.02927   0.01109
           A6          -0.00732  -0.01542   0.01418   0.03251   0.01678
           A7          -0.03488   0.00253   0.01659  -0.03280   0.00815
           A8          -0.03414  -0.00058   0.00450  -0.00956   0.05081
           D1          -0.00444   0.00255  -0.02867   0.02226  -0.01205
           D2           0.01434   0.02330  -0.00125  -0.01913   0.00774
           D3           0.01029  -0.02690   0.02705   0.00440   0.01533
           D4          -0.02117   0.00045   0.00323  -0.00764  -0.02066
                          R6        R7        A1        A2        A3
           R6           0.49656
           R7           0.00167   0.02007
           A1           0.00047   0.00552   0.23802
           A2          -0.00078   0.00608  -0.03126   0.24240
           A3          -0.01384   0.00066  -0.03405  -0.02162   0.13133
           A4           0.00340  -0.00582  -0.06928  -0.07681  -0.00292
           A5           0.00399  -0.00219  -0.07442  -0.02727  -0.04748
           A6           0.00663  -0.00402  -0.02638  -0.07656  -0.02311
           A7          -0.01677   0.01360   0.02424   0.02646  -0.11529
           A8          -0.00924   0.00202  -0.00392   0.01016  -0.04079
           D1          -0.00145   0.00412   0.02057  -0.03538   0.01000
           D2           0.00233   0.00343   0.03607  -0.00156  -0.02233
           D3           0.00298   0.00252  -0.02961   0.03772   0.00166
           D4          -0.00145  -0.02485  -0.00516  -0.00492  -0.01076
                          A4        A5        A6        A7        A8
           A4           0.14718
           A5           0.00119   0.14030
           A6           0.00030  -0.00404   0.12939
           A7           0.00220   0.03227   0.02939   0.20793
           A8           0.00951   0.01155   0.01347  -0.03284   0.21737
           D1          -0.05159   0.04623   0.00437  -0.01030  -0.00811
           D2           0.04406  -0.00402  -0.05206   0.01922   0.00704
           D3          -0.00137  -0.04757   0.04504   0.01321   0.00900
           D4           0.00871   0.00537   0.00644  -0.01482   0.00985
                          D1        D2        D3        D4
           D1           0.05903
           D2          -0.01212   0.05631
           D3          -0.02256  -0.01679   0.05890
           D4          -0.00896  -0.00403  -0.00450   0.04011
 ITU=  0
     Eigenvalues ---    0.00267   0.01872   0.06600   0.11469   0.12039
     Eigenvalues ---    0.18079   0.20798   0.22629   0.23908   0.29353
     Eigenvalues ---    0.32463   0.33291   0.39388   0.40954   0.49943
 Angle between quadratic step and forces=  74.60 degrees.
 Linear search not attempted -- first point.
 Iteration  1 RMS(Cart)=  0.00056688 RMS(Int)=  0.00000025
 Iteration  2 RMS(Cart)=  0.00000022 RMS(Int)=  0.00000001
 Variable       Old X    -DE/DX   Delta X   Delta X   Delta X     New X
                                 (Linear)    (Quad)   (Total)
    R1        2.62014   0.00001   0.00000   0.00015   0.00015   2.62029
    R2        3.35650   0.00000   0.00000   0.00004   0.00004   3.35655
    R3        3.33125  -0.00006   0.00000  -0.00037  -0.00037   3.33088
    R4        3.36055  -0.00006   0.00000  -0.00023  -0.00023   3.36032
    R5        2.67251   0.00007   0.00000   0.00014   0.00014   2.67266
    R6        1.83408  -0.00015   0.00000  -0.00031  -0.00031   1.83377
    R7        5.71074  -0.00003   0.00000  -0.00295  -0.00295   5.70779
    A1        1.94371  -0.00001   0.00000  -0.00005  -0.00005   1.94366
    A2        1.80327   0.00000   0.00000   0.00006   0.00006   1.80333
    A3        1.94503  -0.00002   0.00000  -0.00026  -0.00026   1.94477
    A4        1.92878   0.00005   0.00000   0.00022   0.00022   1.92900
    A5        1.91167  -0.00001   0.00000  -0.00005  -0.00005   1.91162
    A6        1.92952   0.00000   0.00000   0.00008   0.00008   1.92961
    A7        1.90915  -0.00002   0.00000  -0.00018  -0.00018   1.90897
    A8        1.78555   0.00004   0.00000   0.00014   0.00014   1.78568
    D1        1.03343  -0.00003   0.00000  -0.00005  -0.00005   1.03338
    D2        3.10405   0.00002   0.00000   0.00023   0.00023   3.10427
    D3       -1.10701   0.00001   0.00000   0.00024   0.00024  -1.10677
    D4        1.92471   0.00003   0.00000  -0.00117  -0.00117   1.92354
         Item               Value     Threshold  Converged?
 Maximum Force            0.000150     0.000450     YES
 RMS     Force            0.000047     0.000300     YES
 Maximum Displacement     0.001712     0.001800     YES
 RMS     Displacement     0.000567     0.001200     YES
 Predicted change in Energy=-8.902810D-08
 Optimization completed.
    -- Stationary point found.
                           ----------------------------
                           !   Optimized Parameters   !
                           ! (Angstroms and Degrees)  !
 --------------------------                            --------------------------
 ! Name  Definition              Value          Derivative Info.                !
 --------------------------------------------------------------------------------
 ! R1    R(1,2)                  1.3865         -DE/DX =    0.0                 !
 ! R2    R(1,5)                  1.7762         -DE/DX =    0.0                 !
 ! R3    R(1,6)                  1.7628         -DE/DX =   -0.0001              !
 ! R4    R(1,7)                  1.7783         -DE/DX =   -0.0001              !
 ! R5    R(2,3)                  1.4142         -DE/DX =    0.0001              !
 ! R6    R(3,4)                  0.9706         -DE/DX =   -0.0002              !
 ! R7    R(4,7)                  3.022          -DE/DX =    0.0                 !
 ! A1    A(2,1,5)              111.3665         -DE/DX =    0.0                 !
 ! A2    A(2,1,6)              103.3196         -DE/DX =    0.0                 !
 ! A3    A(2,1,7)              111.442          -DE/DX =    0.0                 !
 ! A4    A(5,1,6)              110.5109         -DE/DX =    0.0                 !
 ! A5    A(5,1,7)              109.5307         -DE/DX =    0.0                 !
 ! A6    A(6,1,7)              110.5535         -DE/DX =    0.0                 !
 ! A7    A(1,2,3)              109.386          -DE/DX =    0.0                 !
 ! A8    A(2,3,4)              102.3044         -DE/DX =    0.0                 !
 ! D1    D(5,1,2,3)             59.2111         -DE/DX =    0.0                 !
 ! D2    D(6,1,2,3)            177.8488         -DE/DX =    0.0                 !
 ! D3    D(7,1,2,3)            -63.4268         -DE/DX =    0.0                 !
 ! D4    D(1,2,3,4)            110.2777         -DE/DX =    0.0                 !
 --------------------------------------------------------------------------------
 GradGradGradGradGradGradGradGradGradGradGradGradGradGradGradGradGradGrad

 Leave Link  103 at Mon Dec 13 17:13:35 2021, MaxMem= 1342177280 cpu:      13.4
 (Enter /LUSTRE/yoltla/nc/app/gaussian/09/g09/l9999.exe)
 1\1\GINC-NC126\Freq\RM052X\6-311+G(d,p)\C1H1Cl3O2\EDGL\13-Dec-2021\0\\
 #P Geom=AllCheck Guess=TCheck SCRF=Check GenChk RM052X/6-311+G(d,p) Fr
 eq\\CH3OOH_4\\0,1\C,1.5712470845,0.9144103726,0.1492924318\O,0.2472686
 945,0.6938316549,0.496935132\O,-0.3367799202,-0.2050800855,-0.42550523
 22\H,-0.4589914895,-1.0034072208,0.1127399062\Cl,1.7066112538,1.588443
 6457,-1.4884471882\Cl,2.115581992,2.0877049189,1.3470519458\Cl,2.52959
 14249,-0.5796147959,0.2583898246\\Version=EM64L-G09RevB.01\HF=-1569.68
 64676\RMSD=1.470e-09\RMSF=9.127e-05\ZeroPoint=0.0271563\Thermal=0.0338
 529\Dipole=-0.1382229,-0.8243683,0.3737508\DipoleDeriv=1.7284688,-0.07
 41998,0.0845792,-0.2056051,2.0115777,-0.0887028,-0.0740718,-0.1560816,
 1.9893428,-0.9753617,-0.0660554,0.1486923,0.0505744,-0.4819253,0.19011
 25,0.1694807,0.0865166,-0.5791716,-0.5637949,-0.079384,0.0651331,-0.22
 1009,-0.4320081,-0.1121317,0.1057374,0.0031762,-0.107713,0.4879075,0.0
 303866,-0.0789132,0.0438672,0.4981494,-0.0150572,-0.1229643,-0.0186275
 ,0.289761,-0.1394255,0.0194919,-0.0170964,0.0279072,-0.3148399,0.29612
 84,0.0669494,0.3356603,-0.8662436,-0.1696868,-0.1303456,-0.1549532,-0.
 1149455,-0.4918888,-0.3586216,-0.1272827,-0.3440132,-0.5266532,-0.3681
 074,0.3001064,-0.0474418,0.4192107,-0.7890649,0.0882725,-0.0178486,0.0
 933691,-0.1993224\Polar=66.7247794,2.134259,79.1358649,5.5222912,2.593
 552,75.7275463\PG=C01 [X(C1H1Cl3O2)]\NImag=0\\0.34341240,0.03104382,0.
 28562094,-0.01128702,0.02290587,0.29009536,-0.20733865,-0.00819876,0.0
 6947933,0.37566365,-0.02860019,-0.05886896,0.00185643,0.11268303,0.251
 68436,0.04842892,-0.01079576,-0.08338781,-0.02326025,0.11982012,0.2562
 2458,-0.01750636,-0.02607928,-0.03416099,-0.07853835,-0.05086987,-0.04
 364360,0.11960949,-0.00550332,-0.01906785,-0.01422757,-0.09169366,-0.1
 4451092,-0.10853995,0.14461888,0.48701700,-0.01542225,0.00348894,-0.00
 046513,-0.04667071,-0.07224912,-0.15201392,0.05095733,-0.13090353,0.34
 757707,-0.00285964,-0.00751514,0.00059945,-0.00602978,-0.01656590,0.00
 743460,-0.01401322,-0.04231320,0.00471345,0.02593795,-0.00326562,-0.00
 206960,0.00094659,-0.00441643,-0.02108147,0.00682044,-0.05928990,-0.32
 665421,0.19668625,0.06541736,0.34965454,0.00622696,-0.00315451,-0.0038
 0500,-0.02173188,-0.04621650,0.00961405,0.02929010,0.25222354,-0.20182
 550,-0.00990740,-0.20370791,0.19725569,-0.02860558,-0.00145263,-0.0031
 1437,-0.01448631,-0.01638219,0.03314041,-0.00115788,-0.00144924,0.0031
 5627,-0.00010198,0.00066378,0.00028986,0.03905572,-0.00084063,-0.04427
 119,0.02374988,-0.01360669,-0.00144202,0.01401710,-0.00227922,-0.00151
 419,0.00318835,0.00021110,0.00048025,0.00020601,0.00738173,0.06487215,
 -0.00202982,0.02794177,-0.09230701,0.02773743,0.01448706,-0.03075823,0
 .00004573,-0.00017857,0.00179171,-0.00070137,-0.00099669,0.00062567,-0
 .01332871,-0.05671456,0.17688683,-0.04066794,-0.01680389,-0.01638184,-
 0.02408752,-0.03134715,-0.02661239,-0.00563224,-0.00520916,0.00154575,
 -0.00065228,0.00054326,-0.00172979,0.00365623,-0.00119602,-0.00469965,
 0.06317417,-0.02287724,-0.07569429,-0.04241964,-0.01946763,-0.01735308
 ,-0.01612948,-0.00404035,0.00053522,0.00053196,0.00025303,0.00075176,-
 0.00053802,-0.00050258,0.00573230,-0.00429194,0.04428964,0.12279613,-0
 .02367174,-0.04437964,-0.07738524,-0.01127459,-0.01038142,-0.00485992,
 -0.00025571,-0.00042347,0.00409947,-0.00032707,0.00006647,-0.00071564,
 -0.00866051,-0.01285363,-0.04264560,0.04234602,0.08249381,0.12237140,-
 0.04643423,0.02900587,-0.00513456,-0.04518303,0.03108227,0.00451232,-0
 .00276144,0.00154970,0.00172016,-0.00228106,0.00034755,-0.00243785,0.0
 0163980,0.01032973,-0.00702361,0.00420958,0.00234512,0.00184360,0.0908
 1039,0.03004318,-0.08564905,0.00718845,0.02470013,-0.00842791,-0.00519
 246,-0.00206026,0.00419495,-0.00074286,0.00051276,-0.00108126,0.001187
 39,0.01174113,-0.02385729,0.01975291,0.00972330,-0.03676805,-0.0145221
 4,-0.07466024,0.15158862,-0.00224505,0.00399333,-0.03274518,0.00572067
 ,-0.00731658,0.00518123,-0.00223286,0.00204955,0.00083629,-0.00181166,
 0.00018484,-0.00114929,-0.01148296,0.02840685,-0.01359337,0.00553190,-
 0.01964670,-0.00086448,0.00651994,-0.00767128,0.04233480\\-0.00006444,
 -0.00004755,-0.00002661,0.00001061,-0.00008059,0.00000865,-0.00000730,
 0.00020225,-0.00003835,-0.00000993,-0.00013740,0.00005205,-0.00009323,
 0.00016116,0.00007028,0.00008214,-0.00005007,0.00010293,0.00008215,-0.
 00004780,-0.00016896\\\@


 A successful marriage requires falling in love
 many times, always with the same person.
                           -- Mignon McLaughlin
 Job cpu time:  0 days  0 hours  8 minutes 55.0 seconds.
 File lengths (MBytes):  RWF=     51 Int=      0 D2E=      0 Chk=      5 Scr=      1
 Normal termination of Gaussian 09 at Mon Dec 13 17:13:35 2021.
